LAMMPS data file via write_data, version 22 Jul 2025, timestep = 0, units = real

12 atoms
12 atom types
12 bonds
12 bond types
18 angles
18 angle types
24 dihedrals
24 dihedral types
6 impropers
6 improper types

-2.1779 47.8221 xlo xhi
0.99881 50.99881 ylo yhi
-0.94161 49.05839 zlo zhi

Masses

1 12.011
2 12.011
3 12.011
4 12.011
5 12.011
6 12.011
7 1.008
8 1.008
9 1.008
10 1.008
11 1.008
12 1.008

Pair Coeffs # lj/cut/coul/cut

1 0.07 3.55
2 0.07 3.55
3 0.07 3.55
4 0.07 3.55
5 0.07 3.55
6 0.07 3.55
7 0.03 2.42
8 0.03 2.42
9 0.03 2.42
10 0.03 2.42
11 0.03 2.42
12 0.03 2.42

Bond Coeffs # harmonic

1 469 1.4
2 469 1.4
3 469 1.4
4 469 1.4
5 469 1.4
6 367 1.08
7 367 1.08
8 367 1.08
9 367 1.08
10 367 1.08
11 367 1.08
12 469 1.4

Angle Coeffs # harmonic

1 63 120
2 63 120
3 63 120
4 63 120
5 35 120
6 35 120
7 35 120
8 35 120
9 35 120
10 35 120
11 35 120
12 35 120
13 35 120
14 35 120
15 63 120
16 35 120
17 63 120
18 35 120

Dihedral Coeffs # opls

1 0 7.25 0 0
2 0 7.25 0 0
3 0 7.25 0 0
4 0 7.25 0 0
5 0 7.25 0 0
6 0 7.25 0 0
7 0 7.25 0 0
8 0 7.25 0 0
9 0 7.25 0 0
10 0 7.25 0 0
11 0 7.25 0 0
12 0 7.25 0 0
13 0 7.25 0 0
14 0 7.25 0 0
15 0 7.25 0 0
16 0 7.25 0 0
17 0 7.25 0 0
18 0 7.25 0 0
19 0 7.25 0 0
20 0 7.25 0 0
21 0 7.25 0 0
22 0 7.25 0 0
23 0 7.25 0 0
24 0 7.25 0 0

Improper Coeffs # cvff

1 2.5 -1 2
2 2.5 -1 2
3 2.5 -1 2
4 2.5 -1 2
5 2.5 -1 2
6 2.5 -1 2

Atoms # full

1 1 1 -0.1374 1 1 0 0 0 0
2 1 2 -0.1376 -0.395 1 0 0 0 0
3 1 3 -0.1374 -1.091 1 1.20861 0 0 0
4 1 4 -0.1372 -0.392 1 2.4154 0 0 0
5 1 5 -0.137 1.003 1 2.41188 0 0 0
6 1 6 -0.137 1.696 1 1.20856 0 0 0
7 1 7 0.1374 1.543 0.99881 -0.94161 0 0 0
8 1 8 0.1374 -0.937 1.00119 -0.94161 0 0 0
10 1 10 0.1374 -0.934 0.99881 3.35694 0 0 0
11 1 11 0.137 1.548 1.00119 3.35211 0 0 0
12 1 12 0.137 2.783 1.00119 1.20856 0 0 0
9 1 9 0.1374 47.822 1.00119 1.20861 -1 0 0

Velocities

1 0 0 0
2 0 0 0
3 0 0 0
4 0 0 0
5 0 0 0
6 0 0 0
7 0 0 0
8 0 0 0
10 0 0 0
11 0 0 0
12 0 0 0
9 0 0 0

Bonds

1 1 2 1
2 2 3 2
3 3 4 3
4 4 5 4
5 5 6 1
6 12 6 5
7 6 7 1
8 7 8 2
9 9 10 4
10 10 11 5
11 11 12 6
12 8 9 3

Angles

1 4 2 1 6
2 5 2 1 7
3 12 6 1 7
4 1 1 2 3
5 6 1 2 8
6 18 3 2 8
7 2 2 3 4
8 7 2 3 9
9 16 4 3 9
10 3 3 4 5
11 8 3 4 10
12 14 5 4 10
13 9 4 5 11
14 11 6 5 11
15 17 4 5 6
16 10 1 6 12
17 13 5 6 12
18 15 1 6 5

Dihedrals

1 3 6 1 2 3
2 10 7 1 2 3
3 20 7 1 6 5
4 5 8 2 3 4
5 9 8 2 1 6
6 19 8 2 1 7
7 1 4 3 2 1
8 11 9 3 2 1
9 18 9 3 2 8
10 24 9 3 4 5
11 2 5 4 3 2
12 4 10 4 3 9
13 6 10 4 3 2
14 14 10 4 5 6
15 7 6 5 4 3
16 13 11 5 4 3
17 15 11 5 6 1
18 22 4 5 6 1
19 23 11 5 4 10
20 8 5 6 1 2
21 12 12 6 5 4
22 16 12 6 1 7
23 17 12 6 5 11
24 21 12 6 1 2

Impropers

1 2 2 1 3 8
2 6 6 1 12 5
3 1 1 2 6 7
4 4 4 10 3 5
5 5 5 11 4 6
6 3 3 9 2 4
