LAMMPS data file via write_data, version 22 Jul 2025, timestep = 0, units = real

90 atoms
5 atom types
80 bonds
80 bond types
130 angles
130 angle types
120 dihedrals
120 dihedral types

-3.792 18.809 xlo xhi
-3.778 18.813 ylo yhi
-3.6159999999999997 17.507 zlo zhi

Masses

1 12.01
2 16
3 1.008
4 1.008
5 1.008

Pair Coeffs # lj/cut/coul/long

1 0.1078 3.39771
2 0.093 3.24287
3 0.0208 2.60018
4 0.0208 2.422
5 0.0047 0.537925

Bond Coeffs # harmonic

1 228.89 1.5354
2 285.15 1.4242
3 345.25 1.0962
4 345.25 1.0962
5 345.25 1.0962
6 344.22 1.0969
7 344.22 1.0969
8 535.51 0.9725
9 228.89 1.5354
10 285.15 1.4242
11 345.25 1.0962
12 345.25 1.0962
13 345.25 1.0962
14 344.22 1.0969
15 344.22 1.0969
16 535.51 0.9725
17 228.89 1.5354
18 285.15 1.4242
19 345.25 1.0962
20 345.25 1.0962
21 345.25 1.0962
22 344.22 1.0969
23 344.22 1.0969
24 535.51 0.9725
25 228.89 1.5354
26 285.15 1.4242
27 345.25 1.0962
28 345.25 1.0962
29 345.25 1.0962
30 344.22 1.0969
31 344.22 1.0969
32 535.51 0.9725
33 228.89 1.5354
34 285.15 1.4242
35 345.25 1.0962
36 345.25 1.0962
37 345.25 1.0962
38 344.22 1.0969
39 344.22 1.0969
40 535.51 0.9725
41 228.89 1.5354
42 285.15 1.4242
43 345.25 1.0962
44 345.25 1.0962
45 345.25 1.0962
46 344.22 1.0969
47 344.22 1.0969
48 535.51 0.9725
49 228.89 1.5354
50 285.15 1.4242
51 345.25 1.0962
52 345.25 1.0962
53 345.25 1.0962
54 344.22 1.0969
55 344.22 1.0969
56 535.51 0.9725
57 228.89 1.5354
58 285.15 1.4242
59 345.25 1.0962
60 345.25 1.0962
61 345.25 1.0962
62 344.22 1.0969
63 344.22 1.0969
64 535.51 0.9725
65 228.89 1.5354
66 285.15 1.4242
67 345.25 1.0962
68 345.25 1.0962
69 345.25 1.0962
70 344.22 1.0969
71 344.22 1.0969
72 535.51 0.9725
73 228.89 1.5354
74 285.15 1.4242
75 345.25 1.0962
76 345.25 1.0962
77 345.25 1.0962
78 344.22 1.0969
79 344.22 1.0969
80 535.51 0.9725

Angle Coeffs # harmonic

1 76.79 109.66
2 43.28 109.59
3 43.28 109.59
4 43.27 109.68
5 43.27 109.68
6 43.27 109.68
7 65.13 107.39
8 56.29 110.38
9 56.29 110.38
10 35.8 107.73
11 35.8 107.73
12 35.8 107.73
13 35.64 108.55
14 76.79 109.66
15 43.28 109.59
16 43.28 109.59
17 43.27 109.68
18 43.27 109.68
19 43.27 109.68
20 65.13 107.39
21 56.29 110.38
22 56.29 110.38
23 35.8 107.73
24 35.8 107.73
25 35.8 107.73
26 35.64 108.55
27 76.79 109.66
28 43.28 109.59
29 43.28 109.59
30 43.27 109.68
31 43.27 109.68
32 43.27 109.68
33 65.13 107.39
34 56.29 110.38
35 56.29 110.38
36 35.8 107.73
37 35.8 107.73
38 35.8 107.73
39 35.64 108.55
40 76.79 109.66
41 43.28 109.59
42 43.28 109.59
43 43.27 109.68
44 43.27 109.68
45 43.27 109.68
46 65.13 107.39
47 56.29 110.38
48 56.29 110.38
49 35.8 107.73
50 35.8 107.73
51 35.8 107.73
52 35.64 108.55
53 76.79 109.66
54 43.28 109.59
55 43.28 109.59
56 43.27 109.68
57 43.27 109.68
58 43.27 109.68
59 65.13 107.39
60 56.29 110.38
61 56.29 110.38
62 35.8 107.73
63 35.8 107.73
64 35.8 107.73
65 35.64 108.55
66 76.79 109.66
67 43.28 109.59
68 43.28 109.59
69 43.27 109.68
70 43.27 109.68
71 43.27 109.68
72 65.13 107.39
73 56.29 110.38
74 56.29 110.38
75 35.8 107.73
76 35.8 107.73
77 35.8 107.73
78 35.64 108.55
79 76.79 109.66
80 43.28 109.59
81 43.28 109.59
82 43.27 109.68
83 43.27 109.68
84 43.27 109.68
85 65.13 107.39
86 56.29 110.38
87 56.29 110.38
88 35.8 107.73
89 35.8 107.73
90 35.8 107.73
91 35.64 108.55
92 76.79 109.66
93 43.28 109.59
94 43.28 109.59
95 43.27 109.68
96 43.27 109.68
97 43.27 109.68
98 65.13 107.39
99 56.29 110.38
100 56.29 110.38
101 35.8 107.73
102 35.8 107.73
103 35.8 107.73
104 35.64 108.55
105 76.79 109.66
106 43.28 109.59
107 43.28 109.59
108 43.27 109.68
109 43.27 109.68
110 43.27 109.68
111 65.13 107.39
112 56.29 110.38
113 56.29 110.38
114 35.8 107.73
115 35.8 107.73
116 35.8 107.73
117 35.64 108.55
118 76.79 109.66
119 43.28 109.59
120 43.28 109.59
121 43.27 109.68
122 43.27 109.68
123 43.27 109.68
124 65.13 107.39
125 56.29 110.38
126 56.29 110.38
127 35.8 107.73
128 35.8 107.73
129 35.8 107.73
130 35.64 108.55

Dihedral Coeffs # fourier

1 1 0.06 3 0
2 1 0.09 3 0
3 1 0.09 3 0
4 1 0.09 3 0
5 1 0.1556 3 0
6 1 0.1556 3 0
7 1 0.1556 3 0
8 1 0.1556 3 0
9 1 0.1556 3 0
10 1 0.1556 3 0
11 1 0.123 3 0
12 1 0.123 3 0
13 1 0.06 3 0
14 1 0.09 3 0
15 1 0.09 3 0
16 1 0.09 3 0
17 1 0.1556 3 0
18 1 0.1556 3 0
19 1 0.1556 3 0
20 1 0.1556 3 0
21 1 0.1556 3 0
22 1 0.1556 3 0
23 1 0.123 3 0
24 1 0.123 3 0
25 1 0.06 3 0
26 1 0.09 3 0
27 1 0.09 3 0
28 1 0.09 3 0
29 1 0.1556 3 0
30 1 0.1556 3 0
31 1 0.1556 3 0
32 1 0.1556 3 0
33 1 0.1556 3 0
34 1 0.1556 3 0
35 1 0.123 3 0
36 1 0.123 3 0
37 1 0.06 3 0
38 1 0.09 3 0
39 1 0.09 3 0
40 1 0.09 3 0
41 1 0.1556 3 0
42 1 0.1556 3 0
43 1 0.1556 3 0
44 1 0.1556 3 0
45 1 0.1556 3 0
46 1 0.1556 3 0
47 1 0.123 3 0
48 1 0.123 3 0
49 1 0.06 3 0
50 1 0.09 3 0
51 1 0.09 3 0
52 1 0.09 3 0
53 1 0.1556 3 0
54 1 0.1556 3 0
55 1 0.1556 3 0
56 1 0.1556 3 0
57 1 0.1556 3 0
58 1 0.1556 3 0
59 1 0.123 3 0
60 1 0.123 3 0
61 1 0.06 3 0
62 1 0.09 3 0
63 1 0.09 3 0
64 1 0.09 3 0
65 1 0.1556 3 0
66 1 0.1556 3 0
67 1 0.1556 3 0
68 1 0.1556 3 0
69 1 0.1556 3 0
70 1 0.1556 3 0
71 1 0.123 3 0
72 1 0.123 3 0
73 1 0.06 3 0
74 1 0.09 3 0
75 1 0.09 3 0
76 1 0.09 3 0
77 1 0.1556 3 0
78 1 0.1556 3 0
79 1 0.1556 3 0
80 1 0.1556 3 0
81 1 0.1556 3 0
82 1 0.1556 3 0
83 1 0.123 3 0
84 1 0.123 3 0
85 1 0.06 3 0
86 1 0.09 3 0
87 1 0.09 3 0
88 1 0.09 3 0
89 1 0.1556 3 0
90 1 0.1556 3 0
91 1 0.1556 3 0
92 1 0.1556 3 0
93 1 0.1556 3 0
94 1 0.1556 3 0
95 1 0.123 3 0
96 1 0.123 3 0
97 1 0.06 3 0
98 1 0.09 3 0
99 1 0.09 3 0
100 1 0.09 3 0
101 1 0.1556 3 0
102 1 0.1556 3 0
103 1 0.1556 3 0
104 1 0.1556 3 0
105 1 0.1556 3 0
106 1 0.1556 3 0
107 1 0.123 3 0
108 1 0.123 3 0
109 1 0.06 3 0
110 1 0.09 3 0
111 1 0.09 3 0
112 1 0.09 3 0
113 1 0.1556 3 0
114 1 0.1556 3 0
115 1 0.1556 3 0
116 1 0.1556 3 0
117 1 0.1556 3 0
118 1 0.1556 3 0
119 1 0.123 3 0
120 1 0.123 3 0

Atoms # full

78 9 3 0.0423668886 6.579 7.036 0.325 0 0 0
46 6 1 -0.1361001114 12.005 2.559 3.162 0 0 0
49 6 3 0.0423668886 11.693 2.323 2.141 0 0 0
51 6 3 0.0423668886 13.09 2.708 3.175 0 0 0
53 6 4 0.0431998886 11.519 4.657 3.033 0 0 0
74 9 1 0.1263998886 8.573 7.067 1.152 0 0 0
75 9 2 -0.5998001092 8.502 5.731 1.628 0 0 0
80 9 4 0.0431998886 9.082 7.057 0.184 0 0 0
81 9 5 0.3959998886 8.059 5.75 2.493 0 0 0
73 9 1 -0.1361001114 7.178 7.642 1.012 0 0 0
76 9 3 0.0423668886 7.218 8.668 0.635 0 0 0
77 9 3 0.0423668886 6.659 7.639 1.976 0 0 0
1 1 1 -0.1361001114 8.825 10.598 1.522 0 0 0
2 1 1 0.1263998886 8.437 10.29 2.953 0 0 0
4 1 3 0.0423668886 7.948 10.887 0.936 0 0 0
5 1 3 0.0423668886 9.293 9.728 1.051 0 0 0
6 1 3 0.0423668886 9.557 11.412 1.487 0 0 0
7 1 4 0.0431998886 7.719 9.466 2.996 0 0 0
9 1 5 0.3959998886 9.978 9.144 3.284 0 0 0
79 9 4 0.0431998886 9.172 7.658 1.85 0 0 0
83 10 1 0.1263998886 14.08 11.329 3.166 0 0 0
84 10 2 -0.5998001092 13.802 9.939 3.236 0 0 0
88 10 4 0.0431998886 15.009 11.475 2.609 0 0 0
89 10 4 0.0431998886 13.267 11.812 2.615 0 0 0
19 3 1 -0.1361001114 6.932 1.562 9.171 0 0 0
24 3 3 0.0423668886 6.178 0.769 9.173 0 0 0
22 3 3 0.0423668886 7.59 1.427 10.034 0 0 0
23 3 3 0.0423668886 7.52 1.44 8.255 0 0 0
28 4 1 -0.1361001114 12.15 0.703 10.264 0 0 0
31 4 3 0.0423668886 11.531 0.969 9.402 0 0 0
33 4 3 0.0423668886 13.029 0.153 9.912 0 0 0
50 6 3 0.0423668886 11.793 1.699 3.805 0 0 0
20 3 1 0.1263998886 6.273 2.926 9.207 0 0 0
21 3 2 -0.5998001092 5.412 3.079 8.088 0 0 0
25 3 4 0.0431998886 7.021 3.723 9.187 0 0 0
26 3 4 0.0431998886 5.673 3.037 10.115 0 0 0
27 3 5 0.3959998886 5.954 2.99 7.286 0 0 0
71 8 4 0.0431998886 7.086 6.592 7.039 0 0 0
35 4 4 0.0431998886 13.146 2.613 10.385 0 0 0
47 6 1 0.1263998886 11.292 3.796 3.669 0 0 0
48 6 2 -0.5998001092 11.719 4.097 4.989 0 0 0
52 6 4 0.0431998886 10.208 3.648 3.675 0 0 0
54 6 5 0.3959998886 11.503 3.332 5.549 0 0 0
64 8 1 -0.1361001114 9.24 6.691 7.033 0 0 0
65 8 1 0.1263998886 7.901 6.756 6.328 0 0 0
66 8 2 -0.5998001092 7.827 5.747 5.33 0 0 0
67 8 3 0.0423668886 9.306 7.456 7.811 0 0 0
68 8 3 0.0423668886 10.06 6.838 6.322 0 0 0
69 8 3 0.0423668886 9.388 5.707 7.49 0 0 0
72 8 5 0.3959998886 8.547 5.907 4.697 0 0 0
12 2 2 -0.5998001092 2.002 13.019 3.873 0 0 0
3 1 2 -0.5998001092 9.589 9.931 3.702 0 0 0
8 1 4 0.0431998886 7.985 11.167 3.425 0 0 0
70 8 4 0.0431998886 7.754 7.73 5.854 0 0 0
57 7 2 -0.5998001092 13.566 11.561 9.902 0 0 0
63 7 5 0.3959998886 13.987 10.746 10.226 0 0 0
82 10 1 -0.1361001114 14.188 11.907 4.563 0 0 0
85 10 3 0.0423668886 14.391 12.981 4.524 0 0 0
86 10 3 0.0423668886 14.989 11.416 5.124 0 0 0
87 10 3 0.0423668886 13.261 11.742 5.121 0 0 0
90 10 5 0.3959998886 14.534 9.517 3.717 0 0 0
10 2 1 -0.1361001114 0.722 14.182 5.545 0 0 0
11 2 1 0.1263998886 1.085 14.084 4.077 0 0 0
13 2 3 0.0423668886 0.008 14.992 5.715 0 0 0
14 2 3 0.0423668886 1.615 14.364 6.153 0 0 0
15 2 3 0.0423668886 0.283 13.243 5.897 0 0 0
16 2 4 0.0431998886 1.54 15.013 3.724 0 0 0
17 2 4 0.0431998886 0.193 13.886 3.476 0 0 0
18 2 5 0.3959998886 2.795 13.209 4.402 0 0 0
62 7 4 0.0431998886 13.428 13.525 10.451 0 0 0
32 4 3 0.0423668886 11.585 0.022 10.908 0 0 0
36 4 5 0.3959998886 12.856 0.994 12.706 0 0 0
30 4 2 -0.5998001092 13.381 1.58 12.134 0 0 0
39 5 2 -0.5998001092 6.827 7.277 11.893 0 0 0
29 4 1 0.1263998886 12.567 1.942 11.029 0 0 0
34 4 4 0.0431998886 11.694 2.487 11.398 0 0 0
37 5 1 -0.1361001114 8.837 5.975 12.114 0 0 0
38 5 1 0.1263998886 7.98 7.079 12.698 0 0 0
40 5 3 0.0423668886 9.724 5.805 12.73 0 0 0
41 5 3 0.0423668886 9.157 6.229 11.098 0 0 0
42 5 3 0.0423668886 8.269 5.041 12.045 0 0 0
44 5 4 0.0431998886 7.65 6.814 13.707 0 0 0
45 5 5 0.3959998886 7.129 7.523 11.002 0 0 0
43 5 4 0.0431998886 8.536 8.019 12.753 0 0 0
60 7 3 0.0423668886 12.283 12.107 12.173 0 0 0
55 7 1 -0.1361001114 13.367 12.258 12.195 0 0 0
56 7 1 0.1263998886 13.887 12.601 10.814 0 0 0
58 7 3 0.0423668886 13.598 13.057 12.905 0 0 0
59 7 3 0.0423668886 13.812 11.325 12.556 0 0 0
61 7 4 0.0431998886 14.972 12.736 10.826 0 0 0

Velocities

78 0 0 0
46 0 0 0
49 0 0 0
51 0 0 0
53 0 0 0
74 0 0 0
75 0 0 0
80 0 0 0
81 0 0 0
73 0 0 0
76 0 0 0
77 0 0 0
1 0 0 0
2 0 0 0
4 0 0 0
5 0 0 0
6 0 0 0
7 0 0 0
9 0 0 0
79 0 0 0
83 0 0 0
84 0 0 0
88 0 0 0
89 0 0 0
19 0 0 0
24 0 0 0
22 0 0 0
23 0 0 0
28 0 0 0
31 0 0 0
33 0 0 0
50 0 0 0
20 0 0 0
21 0 0 0
25 0 0 0
26 0 0 0
27 0 0 0
71 0 0 0
35 0 0 0
47 0 0 0
48 0 0 0
52 0 0 0
54 0 0 0
64 0 0 0
65 0 0 0
66 0 0 0
67 0 0 0
68 0 0 0
69 0 0 0
72 0 0 0
12 0 0 0
3 0 0 0
8 0 0 0
70 0 0 0
57 0 0 0
63 0 0 0
82 0 0 0
85 0 0 0
86 0 0 0
87 0 0 0
90 0 0 0
10 0 0 0
11 0 0 0
13 0 0 0
14 0 0 0
15 0 0 0
16 0 0 0
17 0 0 0
18 0 0 0
62 0 0 0
32 0 0 0
36 0 0 0
30 0 0 0
39 0 0 0
29 0 0 0
34 0 0 0
37 0 0 0
38 0 0 0
40 0 0 0
41 0 0 0
42 0 0 0
44 0 0 0
45 0 0 0
43 0 0 0
60 0 0 0
55 0 0 0
56 0 0 0
58 0 0 0
59 0 0 0
61 0 0 0

Bonds

1 41 46 47
2 43 46 49
3 44 46 50
4 45 46 51
5 66 74 75
6 70 74 79
7 71 74 80
8 72 75 81
9 65 73 74
10 67 73 76
11 68 73 77
12 69 73 78
13 1 1 2
14 3 1 4
15 4 1 5
16 5 1 6
17 2 2 3
18 6 2 7
19 7 2 8
20 74 83 84
21 78 83 88
22 79 83 89
23 80 84 90
24 17 19 20
25 19 19 22
26 20 19 23
27 21 19 24
28 25 28 29
29 27 28 31
30 28 28 32
31 29 28 33
32 18 20 21
33 22 20 25
34 23 20 26
35 24 21 27
36 42 47 48
37 46 47 52
38 47 47 53
39 48 48 54
40 57 64 65
41 59 64 67
42 60 64 68
43 61 64 69
44 58 65 66
45 62 65 70
46 63 65 71
47 64 66 72
48 16 12 18
49 8 3 9
50 56 57 63
51 73 82 83
52 75 82 85
53 76 82 86
54 77 82 87
55 9 10 11
56 11 10 13
57 12 10 14
58 13 10 15
59 10 11 12
60 14 11 16
61 15 11 17
62 32 30 36
63 40 39 45
64 26 29 30
65 30 29 34
66 31 29 35
67 33 37 38
68 35 37 40
69 36 37 41
70 37 37 42
71 34 38 39
72 38 38 43
73 39 38 44
74 49 55 56
75 51 55 58
76 52 55 59
77 53 55 60
78 50 56 57
79 54 56 61
80 55 56 62

Angles

1 69 47 46 49
2 70 47 46 50
3 71 47 46 51
4 75 49 46 50
5 76 49 46 51
6 77 50 46 51
7 105 73 74 75
8 106 73 74 79
9 107 73 74 80
10 112 75 74 79
11 113 75 74 80
12 117 79 74 80
13 111 74 75 81
14 108 74 73 76
15 109 74 73 77
16 110 74 73 78
17 114 76 73 77
18 115 76 73 78
19 116 77 73 78
20 4 2 1 4
21 5 2 1 5
22 6 2 1 6
23 10 4 1 5
24 11 4 1 6
25 12 5 1 6
26 1 1 2 3
27 2 1 2 7
28 3 1 2 8
29 8 3 2 7
30 9 3 2 8
31 13 7 2 8
32 118 82 83 84
33 119 82 83 88
34 120 82 83 89
35 125 84 83 88
36 126 84 83 89
37 130 88 83 89
38 124 83 84 90
39 30 20 19 22
40 31 20 19 23
41 32 20 19 24
42 36 22 19 23
43 37 22 19 24
44 38 23 19 24
45 43 29 28 31
46 44 29 28 32
47 45 29 28 33
48 49 31 28 32
49 50 31 28 33
50 51 32 28 33
51 27 19 20 21
52 28 19 20 25
53 29 19 20 26
54 34 21 20 25
55 35 21 20 26
56 39 25 20 26
57 33 20 21 27
58 66 46 47 48
59 67 46 47 52
60 68 46 47 53
61 73 48 47 52
62 74 48 47 53
63 78 52 47 53
64 72 47 48 54
65 95 65 64 67
66 96 65 64 68
67 97 65 64 69
68 101 67 64 68
69 102 67 64 69
70 103 68 64 69
71 92 64 65 66
72 93 64 65 70
73 94 64 65 71
74 99 66 65 70
75 100 66 65 71
76 104 70 65 71
77 98 65 66 72
78 20 11 12 18
79 7 2 3 9
80 85 56 57 63
81 121 83 82 85
82 122 83 82 86
83 123 83 82 87
84 127 85 82 86
85 128 85 82 87
86 129 86 82 87
87 17 11 10 13
88 18 11 10 14
89 19 11 10 15
90 23 13 10 14
91 24 13 10 15
92 25 14 10 15
93 14 10 11 12
94 15 10 11 16
95 16 10 11 17
96 21 12 11 16
97 22 12 11 17
98 26 16 11 17
99 46 29 30 36
100 59 38 39 45
101 40 28 29 30
102 41 28 29 34
103 42 28 29 35
104 47 30 29 34
105 48 30 29 35
106 52 34 29 35
107 56 38 37 40
108 57 38 37 41
109 58 38 37 42
110 62 40 37 41
111 63 40 37 42
112 64 41 37 42
113 53 37 38 39
114 54 37 38 43
115 55 37 38 44
116 60 39 38 43
117 61 39 38 44
118 65 43 38 44
119 82 56 55 58
120 83 56 55 59
121 84 56 55 60
122 88 58 55 59
123 89 58 55 60
124 90 59 55 60
125 79 55 56 57
126 80 55 56 61
127 81 55 56 62
128 86 57 56 61
129 87 57 56 62
130 91 61 56 62

Dihedrals

1 62 49 46 47 48
2 63 50 46 47 48
3 64 51 46 47 48
4 65 49 46 47 52
5 66 49 46 47 53
6 67 50 46 47 52
7 68 50 46 47 53
8 69 51 46 47 52
9 70 51 46 47 53
10 97 73 74 75 81
11 107 79 74 75 81
12 108 80 74 75 81
13 98 76 73 74 75
14 99 77 73 74 75
15 100 78 73 74 75
16 101 76 73 74 79
17 102 76 73 74 80
18 103 77 73 74 79
19 104 77 73 74 80
20 105 78 73 74 79
21 106 78 73 74 80
22 2 4 1 2 3
23 3 5 1 2 3
24 4 6 1 2 3
25 5 4 1 2 7
26 6 4 1 2 8
27 7 5 1 2 7
28 8 5 1 2 8
29 9 6 1 2 7
30 10 6 1 2 8
31 1 1 2 3 9
32 11 7 2 3 9
33 12 8 2 3 9
34 109 82 83 84 90
35 119 88 83 84 90
36 120 89 83 84 90
37 26 22 19 20 21
38 27 23 19 20 21
39 28 24 19 20 21
40 29 22 19 20 25
41 30 22 19 20 26
42 31 23 19 20 25
43 32 23 19 20 26
44 33 24 19 20 25
45 34 24 19 20 26
46 38 31 28 29 30
47 39 32 28 29 30
48 40 33 28 29 30
49 41 31 28 29 34
50 42 31 28 29 35
51 43 32 28 29 34
52 44 32 28 29 35
53 45 33 28 29 34
54 46 33 28 29 35
55 25 19 20 21 27
56 35 25 20 21 27
57 36 26 20 21 27
58 61 46 47 48 54
59 71 52 47 48 54
60 72 53 47 48 54
61 86 67 64 65 66
62 87 68 64 65 66
63 88 69 64 65 66
64 89 67 64 65 70
65 90 67 64 65 71
66 91 68 64 65 70
67 92 68 64 65 71
68 93 69 64 65 70
69 94 69 64 65 71
70 85 64 65 66 72
71 95 70 65 66 72
72 96 71 65 66 72
73 110 85 82 83 84
74 111 86 82 83 84
75 112 87 82 83 84
76 113 85 82 83 88
77 114 85 82 83 89
78 115 86 82 83 88
79 116 86 82 83 89
80 117 87 82 83 88
81 118 87 82 83 89
82 14 13 10 11 12
83 15 14 10 11 12
84 16 15 10 11 12
85 17 13 10 11 16
86 18 13 10 11 17
87 19 14 10 11 16
88 20 14 10 11 17
89 21 15 10 11 16
90 22 15 10 11 17
91 13 10 11 12 18
92 23 16 11 12 18
93 24 17 11 12 18
94 37 28 29 30 36
95 47 34 29 30 36
96 48 35 29 30 36
97 50 40 37 38 39
98 51 41 37 38 39
99 52 42 37 38 39
100 53 40 37 38 43
101 54 40 37 38 44
102 55 41 37 38 43
103 56 41 37 38 44
104 57 42 37 38 43
105 58 42 37 38 44
106 49 37 38 39 45
107 59 43 38 39 45
108 60 44 38 39 45
109 74 58 55 56 57
110 75 59 55 56 57
111 76 60 55 56 57
112 77 58 55 56 61
113 78 58 55 56 62
114 79 59 55 56 61
115 80 59 55 56 62
116 81 60 55 56 61
117 82 60 55 56 62
118 73 55 56 57 63
119 83 61 56 57 63
120 84 62 56 57 63
