LAMMPS data file via write_data, version 22 Jul 2025, timestep = 3000200, units = real

1416 atoms
12 atom types
1440 bonds
188 bond types
2736 angles
341 angle types
6240 dihedrals
749 dihedral types

18.267484748764428 41.7325152512348 xlo xhi
18.267484748764428 41.7325152512348 ylo yhi
18.267484748764428 41.7325152512348 zlo zhi

Masses

1 12.01
2 16
3 1.008
4 1.008
5 1.008
6 12.01
7 16
8 1.008
9 12.01
10 12.01
11 12.01
12 12.01

Pair Coeffs # lj/cut/coul/cut

1 0.1094 3.39967
2 0.2104 3.06647
3 0.0157 2.64953
4 0.0157 2.47135
5 0 0
6 0.1094 3.39967
7 0.17 3.00001
8 0.0157 2.29317
9 0.1094 3.39967
10 0.1094 3.39967
11 0.1094 3.39967
12 0.1094 3.39967

Bond Coeffs # harmonic

1 300.9 1.538
2 300.9 1.538
3 316.7 1.423
4 300.9 1.538
5 300.9 1.538
6 316.7 1.423
7 300.9 1.538
8 300.9 1.538
9 316.7 1.423
10 300.9 1.538
11 300.9 1.538
12 316.7 1.423
13 300.9 1.538
14 300.9 1.538
15 316.7 1.423
16 300.9 1.538
17 300.9 1.538
18 316.7 1.423
19 300.9 1.538
20 300.9 1.538
21 316.7 1.423
22 300.9 1.538
23 300.9 1.538
24 316.7 1.423
25 300.9 1.538
26 300.9 1.538
27 316.7 1.423
28 300.9 1.538
29 300.9 1.538
30 316.7 1.423
31 300.9 1.538
32 300.9 1.538
33 316.7 1.423
34 300.9 1.538
35 300.9 1.538
36 316.7 1.423
37 300.9 1.538
38 300.9 1.538
39 316.7 1.423
40 300.9 1.538
41 300.9 1.538
42 316.7 1.423
43 300.9 1.538
44 300.9 1.538
45 316.7 1.423
46 300.9 1.538
47 300.9 1.538
48 316.7 1.423
49 300.9 1.538
50 300.9 1.538
51 316.7 1.423
52 300.9 1.538
53 300.9 1.538
54 316.7 1.423
55 300.9 1.538
56 300.9 1.538
57 316.7 1.423
58 300.9 1.538
59 300.9 1.538
60 316.7 1.423
61 300.9 1.538
62 308.6 1.432
63 300.9 1.538
64 308.6 1.432
65 308.6 1.432
66 308.6 1.432
67 300.9 1.538
68 308.6 1.432
69 300.9 1.538
70 308.6 1.432
71 308.6 1.432
72 308.6 1.432
73 300.9 1.538
74 300.9 1.538
75 300.9 1.538
76 300.9 1.538
77 330.6 1.097
78 330.6 1.097
79 330.6 1.097
80 330.6 1.097
81 330.6 1.097
82 330.6 1.097
83 330.6 1.097
84 330.6 1.097
85 330.6 1.097
86 330.6 1.097
87 330.6 1.097
88 330.6 1.097
89 330.6 1.097
90 330.6 1.097
91 330.6 1.097
92 330.6 1.097
93 330.6 1.097
94 330.6 1.097
95 330.6 1.097
96 330.6 1.097
97 330.6 1.097
98 330.6 1.097
99 330.6 1.097
100 330.6 1.097
101 330.6 1.097
102 330.6 1.097
103 330.6 1.097
104 330.6 1.097
105 330.6 1.097
106 330.6 1.097
107 330.6 1.097
108 330.6 1.097
109 371.4 0.973
110 371.4 0.973
111 371.4 0.973
112 371.4 0.973
113 371.4 0.973
114 371.4 0.973
115 371.4 0.973
116 371.4 0.973
117 371.4 0.973
118 371.4 0.973
119 330.6 1.097
120 330.6 1.097
121 330.6 1.097
122 330.6 1.097
123 330.6 1.097
124 330.6 1.097
125 330.6 1.097
126 330.6 1.097
127 330.6 1.097
128 330.6 1.097
129 330.6 1.097
130 330.6 1.097
131 330.6 1.097
132 330.6 1.097
133 330.6 1.097
134 330.6 1.097
135 330.6 1.097
136 330.6 1.097
137 330.6 1.097
138 330.6 1.097
139 330.6 1.097
140 330.6 1.097
141 330.6 1.097
142 330.6 1.097
143 330.6 1.097
144 330.6 1.097
145 330.6 1.097
146 330.6 1.097
147 330.6 1.097
148 330.6 1.097
149 330.6 1.097
150 330.6 1.097
151 371.4 0.973
152 371.4 0.973
153 371.4 0.973
154 371.4 0.973
155 371.4 0.973
156 371.4 0.973
157 371.4 0.973
158 371.4 0.973
159 371.4 0.973
160 371.4 0.973
161 330.6 1.097
162 330.6 1.097
163 330.6 1.097
164 330.6 1.097
165 330.6 1.097
166 330.6 1.097
167 330.6 1.097
168 330.6 1.097
169 331.7 1.096
170 330.6 1.097
171 330.6 1.097
172 330.6 1.097
173 330.6 1.097
174 330.6 1.097
175 330.6 1.097
176 331.7 1.096
177 300.9 1.538
178 330.6 1.097
179 316.7 1.423
180 330.6 1.097
181 300.9 1.538
182 300.9 1.538
183 308.6 1.432
184 330.6 1.097
185 330.6 1.097
186 371.4 0.973
187 331.7 1.096
188 300.9 1.538

Angle Coeffs # harmonic

1 62.9 111.51
2 67.5 110.19
3 62.9 111.51
4 67.5 110.19
5 62.9 111.51
6 67.5 110.19
7 62.9 111.51
8 67.5 110.19
9 62.9 111.51
10 67.5 110.19
11 62.9 111.51
12 67.5 110.19
13 62.9 111.51
14 67.5 110.19
15 62.9 111.51
16 67.5 110.19
17 62.9 111.51
18 67.5 110.19
19 62.9 111.51
20 67.5 110.19
21 62.9 111.51
22 67.5 110.19
23 62.9 111.51
24 67.5 110.19
25 62.9 111.51
26 67.5 110.19
27 62.9 111.51
28 67.5 110.19
29 62.9 111.51
30 67.5 110.19
31 62.9 111.51
32 67.5 110.19
33 62.9 111.51
34 67.5 110.19
35 62.9 111.51
36 67.5 110.19
37 62.9 111.51
38 67.5 110.19
39 67.5 110.19
40 62.9 111.51
41 67.5 110.19
42 62.9 111.51
43 67.5 110.19
44 62.9 111.51
45 67.5 110.19
46 62.9 111.51
47 67.5 110.19
48 62.9 111.51
49 67.5 110.19
50 62.9 111.51
51 67.5 110.19
52 62.9 111.51
53 67.5 110.19
54 62.9 111.51
55 67.5 110.19
56 62.9 111.51
57 67.5 110.19
58 62.9 111.51
59 67.5 110.19
60 62.9 111.51
61 67.5 110.19
62 62.9 111.51
63 67.5 110.19
64 62.9 111.51
65 67.5 110.19
66 62.9 111.51
67 67.5 110.19
68 62.9 111.51
69 67.5 110.19
70 62.9 111.51
71 67.5 110.19
72 62.9 111.51
73 67.5 110.19
74 62.9 111.51
75 67.5 110.19
76 62.9 111.51
77 67.5 110.19
78 67.5 110.19
79 62.9 111.51
80 62.7 112.48
81 68 107.97
82 68 107.97
83 62.7 112.48
84 72.7 108.29
85 68 107.97
86 68 107.97
87 62.9 111.51
88 62.7 112.48
89 68 107.97
90 68 107.97
91 62.7 112.48
92 72.7 108.29
93 68 107.97
94 68 107.97
95 62.9 111.51
96 62.9 111.51
97 62.9 111.51
98 46.4 109.56
99 46.3 109.8
100 46.3 109.8
101 46.3 109.8
102 46.3 109.8
103 47.4 107.26
104 46.4 109.56
105 46.4 109.56
106 46.3 109.8
107 46.3 109.8
108 46.3 109.8
109 46.3 109.8
110 47.4 107.26
111 46.4 109.56
112 46.4 109.56
113 46.3 109.8
114 46.3 109.8
115 46.3 109.8
116 46.3 109.8
117 47.4 107.26
118 46.4 109.56
119 46.4 109.56
120 46.3 109.8
121 46.3 109.8
122 46.3 109.8
123 46.3 109.8
124 47.4 107.26
125 46.4 109.56
126 46.4 109.56
127 46.3 109.8
128 46.3 109.8
129 46.3 109.8
130 46.3 109.8
131 47.4 107.26
132 46.4 109.56
133 46.4 109.56
134 46.3 109.8
135 46.3 109.8
136 46.3 109.8
137 46.3 109.8
138 47.4 107.26
139 46.4 109.56
140 46.4 109.56
141 46.3 109.8
142 46.3 109.8
143 46.3 109.8
144 46.3 109.8
145 47.4 107.26
146 46.4 109.56
147 46.4 109.56
148 46.3 109.8
149 46.3 109.8
150 46.3 109.8
151 46.3 109.8
152 47.4 107.26
153 46.4 109.56
154 46.4 109.56
155 46.3 109.8
156 46.3 109.8
157 46.3 109.8
158 46.3 109.8
159 47.4 107.26
160 46.4 109.56
161 46.4 109.56
162 46.3 109.8
163 46.3 109.8
164 46.3 109.8
165 46.3 109.8
166 47.4 107.26
167 46.4 109.56
168 50.9 110.26
169 50.9 110.26
170 50.9 110.26
171 50.9 110.26
172 50.9 110.26
173 50.9 110.26
174 50.9 110.26
175 50.9 110.26
176 50.9 110.26
177 50.9 110.26
178 39.4 107.58
179 39.4 107.58
180 39.4 107.58
181 39.4 107.58
182 39.4 107.58
183 39.4 107.58
184 39.4 107.58
185 39.4 107.58
186 39.4 107.58
187 39.4 107.58
188 39.4 107.58
189 46.4 109.56
190 46.3 109.8
191 46.3 109.8
192 46.3 109.8
193 46.3 109.8
194 47.4 107.26
195 46.4 109.56
196 46.4 109.56
197 46.3 109.8
198 46.3 109.8
199 46.3 109.8
200 46.3 109.8
201 47.4 107.26
202 46.4 109.56
203 46.4 109.56
204 46.3 109.8
205 46.3 109.8
206 46.3 109.8
207 46.3 109.8
208 47.4 107.26
209 46.4 109.56
210 46.4 109.56
211 46.3 109.8
212 46.3 109.8
213 46.3 109.8
214 46.3 109.8
215 47.4 107.26
216 46.4 109.56
217 46.4 109.56
218 46.3 109.8
219 46.3 109.8
220 46.3 109.8
221 46.3 109.8
222 47.4 107.26
223 46.4 109.56
224 46.4 109.56
225 46.3 109.8
226 46.3 109.8
227 46.3 109.8
228 46.3 109.8
229 47.4 107.26
230 46.4 109.56
231 46.4 109.56
232 46.3 109.8
233 46.3 109.8
234 46.3 109.8
235 46.3 109.8
236 47.4 107.26
237 46.4 109.56
238 46.4 109.56
239 46.3 109.8
240 46.3 109.8
241 46.3 109.8
242 46.3 109.8
243 47.4 107.26
244 46.4 109.56
245 46.4 109.56
246 46.3 109.8
247 46.3 109.8
248 46.3 109.8
249 46.3 109.8
250 47.4 107.26
251 46.4 109.56
252 46.4 109.56
253 46.3 109.8
254 46.3 109.8
255 46.3 109.8
256 46.3 109.8
257 47.4 107.26
258 46.4 109.56
259 50.9 110.26
260 50.9 110.26
261 50.9 110.26
262 50.9 110.26
263 50.9 110.26
264 50.9 110.26
265 50.9 110.26
266 50.9 110.26
267 50.9 110.26
268 50.9 110.26
269 39.4 107.58
270 39.4 107.58
271 39.4 107.58
272 39.4 107.58
273 39.4 107.58
274 39.4 107.58
275 39.4 107.58
276 39.4 107.58
277 39.4 107.58
278 39.4 107.58
279 39.4 107.58
280 46.3 109.8
281 46.3 109.8
282 46.4 109.56
283 46.4 109.56
284 46.3 109.8
285 46.3 109.8
286 50.8 109.78
287 50.9 109.58
288 50.8 109.78
289 50.9 109.58
290 46.3 109.8
291 46.3 109.8
292 46.4 109.56
293 46.4 109.56
294 46.3 109.8
295 46.3 109.8
296 50.8 109.78
297 50.9 109.58
298 50.8 109.78
299 50.9 109.58
300 46.3 109.8
301 46.3 109.8
302 46.2 110.22
303 46.3 109.8
304 46.3 109.8
305 46.3 109.8
306 46.3 109.8
307 46.3 109.8
308 46.3 109.8
309 46.3 109.8
310 46.3 109.8
311 46.2 110.22
312 46.3 109.8
313 46.3 109.8
314 39.4 107.58
315 39.4 107.58
316 39.4 107.58
317 39.4 107.58
318 39.4 107.58
319 62.9 111.51
320 67.5 110.19
321 46.4 109.56
322 46.3 109.8
323 47.4 107.26
324 62.9 111.51
325 62.9 111.51
326 68 107.97
327 46.4 109.56
328 46.3 109.8
329 62.9 111.51
330 46.3 109.8
331 62.7 112.48
332 68 107.97
333 46.4 109.56
334 50.9 110.26
335 50.8 109.78
336 72.7 108.29
337 50.9 109.58
338 46.2 110.22
339 39.4 107.58
340 39.4 107.58
341 62.9 111.51

Dihedral Coeffs # fourier

1 1 0.2 1 180
2 1 0.25 2 180
3 1 0.18 3 0
4 1 0.2 1 180
5 1 0.25 2 180
6 1 0.18 3 0
7 1 0.1556 3 0
8 1 0.2 1 180
9 1 0.25 2 180
10 1 0.18 3 0
11 1 0.1556 3 0
12 1 0.2 1 180
13 1 0.25 2 180
14 1 0.18 3 0
15 1 0.1556 3 0
16 1 0.2 1 180
17 1 0.25 2 180
18 1 0.18 3 0
19 1 0.1556 3 0
20 1 0.2 1 180
21 1 0.25 2 180
22 1 0.18 3 0
23 1 0.1556 3 0
24 1 0.2 1 180
25 1 0.25 2 180
26 1 0.18 3 0
27 1 0.1556 3 0
28 1 0.2 1 180
29 1 0.25 2 180
30 1 0.18 3 0
31 1 0.1556 3 0
32 1 0.2 1 180
33 1 0.25 2 180
34 1 0.18 3 0
35 1 0.1556 3 0
36 1 0.2 1 180
37 1 0.25 2 180
38 1 0.18 3 0
39 1 0.1556 3 0
40 1 0.2 1 180
41 1 0.25 2 180
42 1 0.18 3 0
43 1 0.1556 3 0
44 1 0.2 1 180
45 1 0.25 2 180
46 1 0.18 3 0
47 1 0.1556 3 0
48 1 0.2 1 180
49 1 0.25 2 180
50 1 0.18 3 0
51 1 0.1556 3 0
52 1 0.2 1 180
53 1 0.25 2 180
54 1 0.18 3 0
55 1 0.1556 3 0
56 1 0.2 1 180
57 1 0.25 2 180
58 1 0.18 3 0
59 1 0.1556 3 0
60 1 0.2 1 180
61 1 0.25 2 180
62 1 0.18 3 0
63 1 0.1556 3 0
64 1 0.2 1 180
65 1 0.25 2 180
66 1 0.18 3 0
67 1 0.1556 3 0
68 1 0.2 1 180
69 1 0.25 2 180
70 1 0.18 3 0
71 1 0.1556 3 0
72 1 0.1556 3 0
73 1 0.2 1 180
74 1 0.25 2 180
75 1 0.18 3 0
76 1 0.2 1 180
77 1 0.25 2 180
78 1 0.18 3 0
79 1 0.1556 3 0
80 1 0.2 1 180
81 1 0.25 2 180
82 1 0.18 3 0
83 1 0.1556 3 0
84 1 0.2 1 180
85 1 0.25 2 180
86 1 0.18 3 0
87 1 0.1556 3 0
88 1 0.2 1 180
89 1 0.25 2 180
90 1 0.18 3 0
91 1 0.1556 3 0
92 1 0.2 1 180
93 1 0.25 2 180
94 1 0.18 3 0
95 1 0.1556 3 0
96 1 0.2 1 180
97 1 0.25 2 180
98 1 0.18 3 0
99 1 0.1556 3 0
100 1 0.2 1 180
101 1 0.25 2 180
102 1 0.18 3 0
103 1 0.1556 3 0
104 1 0.2 1 180
105 1 0.25 2 180
106 1 0.18 3 0
107 1 0.1556 3 0
108 1 0.2 1 180
109 1 0.25 2 180
110 1 0.18 3 0
111 1 0.1556 3 0
112 1 0.2 1 180
113 1 0.25 2 180
114 1 0.18 3 0
115 1 0.1556 3 0
116 1 0.2 1 180
117 1 0.25 2 180
118 1 0.18 3 0
119 1 0.1556 3 0
120 1 0.2 1 180
121 1 0.25 2 180
122 1 0.18 3 0
123 1 0.1556 3 0
124 1 0.2 1 180
125 1 0.25 2 180
126 1 0.18 3 0
127 1 0.1556 3 0
128 1 0.2 1 180
129 1 0.25 2 180
130 1 0.18 3 0
131 1 0.1556 3 0
132 1 0.2 1 180
133 1 0.25 2 180
134 1 0.18 3 0
135 1 0.1556 3 0
136 1 0.2 1 180
137 1 0.25 2 180
138 1 0.18 3 0
139 1 0.1556 3 0
140 1 0.2 1 180
141 1 0.25 2 180
142 1 0.18 3 0
143 1 0.1556 3 0
144 1 0.1556 3 0
145 1 0.1556 3 0
146 1 1.35 1 180
147 1 0.85 2 180
148 1 0.1 3 0
149 1 0.1 2 180
150 1 0.383 3 0
151 1 0.1 2 180
152 1 0.383 3 0
153 1 0.1 2 180
154 1 0.383 3 0
155 1 0.1556 3 0
156 1 1.35 1 180
157 1 0.85 2 180
158 1 0.1 3 0
159 1 0.1 2 180
160 1 0.383 3 0
161 1 0.1556 3 0
162 1 0.1556 3 0
163 1 0.1556 3 0
164 1 1.35 1 180
165 1 0.85 2 180
166 1 0.1 3 0
167 1 0.1 2 180
168 1 0.383 3 0
169 1 0.1 2 180
170 1 0.383 3 0
171 1 0.1 2 180
172 1 0.383 3 0
173 1 0.1556 3 0
174 1 1.35 1 180
175 1 0.85 2 180
176 1 0.1 3 0
177 1 0.1 2 180
178 1 0.383 3 0
179 1 0.1556 3 0
180 1 0.1556 3 0
181 1 0.2 1 180
182 1 0.25 2 180
183 1 0.18 3 0
184 1 0.2 1 180
185 1 0.25 2 180
186 1 0.18 3 0
187 1 0.16 3 0
188 1 0.16 3 0
189 1 0.25 1 0
190 1 0.16 3 0
191 1 0.1556 3 0
192 1 0.16 3 0
193 1 0.16 3 0
194 1 0.25 1 0
195 1 0.16 3 0
196 1 0.16 3 0
197 1 0.16 3 0
198 1 0.25 1 0
199 1 0.16 3 0
200 1 0.1556 3 0
201 1 0.1556 3 0
202 1 0.16 3 0
203 1 0.16 3 0
204 1 0.25 1 0
205 1 0.16 3 0
206 1 0.16 3 0
207 1 0.16 3 0
208 1 0.25 1 0
209 1 0.16 3 0
210 1 0.1556 3 0
211 1 0.1556 3 0
212 1 0.16 3 0
213 1 0.16 3 0
214 1 0.25 1 0
215 1 0.16 3 0
216 1 0.16 3 0
217 1 0.16 3 0
218 1 0.25 1 0
219 1 0.16 3 0
220 1 0.1556 3 0
221 1 0.1556 3 0
222 1 0.16 3 0
223 1 0.16 3 0
224 1 0.25 1 0
225 1 0.16 3 0
226 1 0.16 3 0
227 1 0.16 3 0
228 1 0.25 1 0
229 1 0.16 3 0
230 1 0.1556 3 0
231 1 0.1556 3 0
232 1 0.16 3 0
233 1 0.16 3 0
234 1 0.25 1 0
235 1 0.16 3 0
236 1 0.16 3 0
237 1 0.16 3 0
238 1 0.25 1 0
239 1 0.16 3 0
240 1 0.1556 3 0
241 1 0.1556 3 0
242 1 0.16 3 0
243 1 0.16 3 0
244 1 0.25 1 0
245 1 0.16 3 0
246 1 0.16 3 0
247 1 0.16 3 0
248 1 0.25 1 0
249 1 0.16 3 0
250 1 0.1556 3 0
251 1 0.1556 3 0
252 1 0.16 3 0
253 1 0.16 3 0
254 1 0.25 1 0
255 1 0.16 3 0
256 1 0.16 3 0
257 1 0.16 3 0
258 1 0.25 1 0
259 1 0.16 3 0
260 1 0.1556 3 0
261 1 0.1556 3 0
262 1 0.16 3 0
263 1 0.16 3 0
264 1 0.25 1 0
265 1 0.16 3 0
266 1 0.16 3 0
267 1 0.16 3 0
268 1 0.25 1 0
269 1 0.16 3 0
270 1 0.1556 3 0
271 1 0.1556 3 0
272 1 0.16 3 0
273 1 0.16 3 0
274 1 0.25 1 0
275 1 0.16 3 0
276 1 0.16 3 0
277 1 0.16 3 0
278 1 0.25 1 0
279 1 0.16 3 0
280 1 0.1556 3 0
281 1 0.16 3 0
282 1 0.16 3 0
283 1 0.25 1 0
284 1 0.16 3 0
285 1 0.25 1 0
286 1 0 3 0
287 1 0.25 1 0
288 1 0 3 0
289 1 0.25 1 0
290 1 0 3 0
291 1 0.25 1 0
292 1 0 3 0
293 1 0.25 1 0
294 1 0 3 0
295 1 0.25 1 0
296 1 0 3 0
297 1 0.25 1 0
298 1 0 3 0
299 1 0.25 1 0
300 1 0 3 0
301 1 0.25 1 0
302 1 0 3 0
303 1 0.25 1 0
304 1 0 3 0
305 1 0.25 1 0
306 1 0 3 0
307 1 0.25 1 0
308 1 0 3 0
309 1 0.25 1 0
310 1 0 3 0
311 1 0.25 1 0
312 1 0 3 0
313 1 0.25 1 0
314 1 0 3 0
315 1 0.25 1 0
316 1 0 3 0
317 1 0.25 1 0
318 1 0 3 0
319 1 0.25 1 0
320 1 0 3 0
321 1 0.25 1 0
322 1 0 3 0
323 1 0.25 1 0
324 1 0 3 0
325 1 0.25 1 0
326 1 0 3 0
327 1 0.25 1 0
328 1 0 3 0
329 1 0.25 1 0
330 1 0 3 0
331 1 0.25 1 0
332 1 0 3 0
333 1 0.25 1 0
334 1 0 3 0
335 1 0.25 1 0
336 1 0 3 0
337 1 0.25 1 0
338 1 0 3 0
339 1 0.25 1 0
340 1 0 3 0
341 1 0.25 1 0
342 1 0 3 0
343 1 0.25 1 0
344 1 0 3 0
345 1 0.25 1 0
346 1 0 3 0
347 1 0.25 1 0
348 1 0 3 0
349 1 0.25 1 0
350 1 0 3 0
351 1 0.25 1 0
352 1 0 3 0
353 1 0.25 1 0
354 1 0 3 0
355 1 0.25 1 0
356 1 0 3 0
357 1 0.25 1 0
358 1 0 3 0
359 1 0.25 1 0
360 1 0 3 0
361 1 0.25 1 0
362 1 0 3 0
363 1 0.25 1 0
364 1 0 3 0
365 1 0.1556 3 0
366 1 0.1556 3 0
367 1 0.1556 3 0
368 1 0.1556 3 0
369 1 0.1667 3 0
370 1 0.1556 3 0
371 1 0.1556 3 0
372 1 0.1556 3 0
373 1 0.1556 3 0
374 1 0.1667 3 0
375 1 0.1556 3 0
376 1 0.1556 3 0
377 1 0.1556 3 0
378 1 0.1556 3 0
379 1 0.1667 3 0
380 1 0.1556 3 0
381 1 0.1556 3 0
382 1 0.1556 3 0
383 1 0.1556 3 0
384 1 0.1667 3 0
385 1 0.1556 3 0
386 1 0.1556 3 0
387 1 0.1556 3 0
388 1 0.1556 3 0
389 1 0.1667 3 0
390 1 0.1556 3 0
391 1 0.1556 3 0
392 1 0.1556 3 0
393 1 0.1556 3 0
394 1 0.1667 3 0
395 1 0.1556 3 0
396 1 0.1556 3 0
397 1 0.1556 3 0
398 1 0.1556 3 0
399 1 0.1667 3 0
400 1 0.1556 3 0
401 1 0.1556 3 0
402 1 0.1556 3 0
403 1 0.1556 3 0
404 1 0.1667 3 0
405 1 0.1556 3 0
406 1 0.1556 3 0
407 1 0.1556 3 0
408 1 0.1556 3 0
409 1 0.1667 3 0
410 1 0.1556 3 0
411 1 0.1556 3 0
412 1 0.1556 3 0
413 1 0.1556 3 0
414 1 0.1667 3 0
415 1 0.16 3 0
416 1 0.16 3 0
417 1 0.25 1 0
418 1 0.16 3 0
419 1 0.1556 3 0
420 1 0.16 3 0
421 1 0.16 3 0
422 1 0.25 1 0
423 1 0.16 3 0
424 1 0.16 3 0
425 1 0.16 3 0
426 1 0.25 1 0
427 1 0.16 3 0
428 1 0.1556 3 0
429 1 0.1556 3 0
430 1 0.16 3 0
431 1 0.16 3 0
432 1 0.25 1 0
433 1 0.16 3 0
434 1 0.16 3 0
435 1 0.16 3 0
436 1 0.25 1 0
437 1 0.16 3 0
438 1 0.1556 3 0
439 1 0.1556 3 0
440 1 0.16 3 0
441 1 0.16 3 0
442 1 0.25 1 0
443 1 0.16 3 0
444 1 0.16 3 0
445 1 0.16 3 0
446 1 0.25 1 0
447 1 0.16 3 0
448 1 0.1556 3 0
449 1 0.1556 3 0
450 1 0.16 3 0
451 1 0.16 3 0
452 1 0.25 1 0
453 1 0.16 3 0
454 1 0.16 3 0
455 1 0.16 3 0
456 1 0.25 1 0
457 1 0.16 3 0
458 1 0.1556 3 0
459 1 0.1556 3 0
460 1 0.16 3 0
461 1 0.16 3 0
462 1 0.25 1 0
463 1 0.16 3 0
464 1 0.16 3 0
465 1 0.16 3 0
466 1 0.25 1 0
467 1 0.16 3 0
468 1 0.1556 3 0
469 1 0.1556 3 0
470 1 0.16 3 0
471 1 0.16 3 0
472 1 0.25 1 0
473 1 0.16 3 0
474 1 0.16 3 0
475 1 0.16 3 0
476 1 0.25 1 0
477 1 0.16 3 0
478 1 0.1556 3 0
479 1 0.1556 3 0
480 1 0.16 3 0
481 1 0.16 3 0
482 1 0.25 1 0
483 1 0.16 3 0
484 1 0.16 3 0
485 1 0.16 3 0
486 1 0.25 1 0
487 1 0.16 3 0
488 1 0.1556 3 0
489 1 0.1556 3 0
490 1 0.16 3 0
491 1 0.16 3 0
492 1 0.25 1 0
493 1 0.16 3 0
494 1 0.16 3 0
495 1 0.16 3 0
496 1 0.25 1 0
497 1 0.16 3 0
498 1 0.1556 3 0
499 1 0.1556 3 0
500 1 0.16 3 0
501 1 0.16 3 0
502 1 0.25 1 0
503 1 0.16 3 0
504 1 0.16 3 0
505 1 0.16 3 0
506 1 0.25 1 0
507 1 0.16 3 0
508 1 0.1556 3 0
509 1 0.16 3 0
510 1 0.16 3 0
511 1 0.25 1 0
512 1 0.16 3 0
513 1 0.25 1 0
514 1 0 3 0
515 1 0.25 1 0
516 1 0 3 0
517 1 0.25 1 0
518 1 0 3 0
519 1 0.25 1 0
520 1 0 3 0
521 1 0.25 1 0
522 1 0 3 0
523 1 0.25 1 0
524 1 0 3 0
525 1 0.25 1 0
526 1 0 3 0
527 1 0.25 1 0
528 1 0 3 0
529 1 0.25 1 0
530 1 0 3 0
531 1 0.25 1 0
532 1 0 3 0
533 1 0.25 1 0
534 1 0 3 0
535 1 0.25 1 0
536 1 0 3 0
537 1 0.25 1 0
538 1 0 3 0
539 1 0.25 1 0
540 1 0 3 0
541 1 0.25 1 0
542 1 0 3 0
543 1 0.25 1 0
544 1 0 3 0
545 1 0.25 1 0
546 1 0 3 0
547 1 0.25 1 0
548 1 0 3 0
549 1 0.25 1 0
550 1 0 3 0
551 1 0.25 1 0
552 1 0 3 0
553 1 0.25 1 0
554 1 0 3 0
555 1 0.25 1 0
556 1 0 3 0
557 1 0.25 1 0
558 1 0 3 0
559 1 0.25 1 0
560 1 0 3 0
561 1 0.25 1 0
562 1 0 3 0
563 1 0.25 1 0
564 1 0 3 0
565 1 0.25 1 0
566 1 0 3 0
567 1 0.25 1 0
568 1 0 3 0
569 1 0.25 1 0
570 1 0 3 0
571 1 0.25 1 0
572 1 0 3 0
573 1 0.25 1 0
574 1 0 3 0
575 1 0.25 1 0
576 1 0 3 0
577 1 0.25 1 0
578 1 0 3 0
579 1 0.25 1 0
580 1 0 3 0
581 1 0.25 1 0
582 1 0 3 0
583 1 0.25 1 0
584 1 0 3 0
585 1 0.25 1 0
586 1 0 3 0
587 1 0.25 1 0
588 1 0 3 0
589 1 0.25 1 0
590 1 0 3 0
591 1 0.25 1 0
592 1 0 3 0
593 1 0.1556 3 0
594 1 0.1556 3 0
595 1 0.1556 3 0
596 1 0.1556 3 0
597 1 0.1667 3 0
598 1 0.1556 3 0
599 1 0.1556 3 0
600 1 0.1556 3 0
601 1 0.1556 3 0
602 1 0.1667 3 0
603 1 0.1556 3 0
604 1 0.1556 3 0
605 1 0.1556 3 0
606 1 0.1556 3 0
607 1 0.1667 3 0
608 1 0.1556 3 0
609 1 0.1556 3 0
610 1 0.1556 3 0
611 1 0.1556 3 0
612 1 0.1667 3 0
613 1 0.1556 3 0
614 1 0.1556 3 0
615 1 0.1556 3 0
616 1 0.1556 3 0
617 1 0.1667 3 0
618 1 0.1556 3 0
619 1 0.1556 3 0
620 1 0.1556 3 0
621 1 0.1556 3 0
622 1 0.1667 3 0
623 1 0.1556 3 0
624 1 0.1556 3 0
625 1 0.1556 3 0
626 1 0.1556 3 0
627 1 0.1667 3 0
628 1 0.1556 3 0
629 1 0.1556 3 0
630 1 0.1556 3 0
631 1 0.1556 3 0
632 1 0.1667 3 0
633 1 0.1556 3 0
634 1 0.1556 3 0
635 1 0.1556 3 0
636 1 0.1556 3 0
637 1 0.1667 3 0
638 1 0.1556 3 0
639 1 0.1556 3 0
640 1 0.1556 3 0
641 1 0.1556 3 0
642 1 0.1667 3 0
643 1 0.1556 3 0
644 1 0.3833 3 0
645 1 0.1556 3 0
646 1 0.3833 3 0
647 1 0.25 1 0
648 1 0 3 0
649 1 0.25 1 0
650 1 0 3 0
651 1 0.25 1 0
652 1 0 3 0
653 1 0.25 1 0
654 1 0 3 0
655 1 0.25 1 0
656 1 0 3 0
657 1 0.25 1 0
658 1 0 3 0
659 1 0.25 1 0
660 1 0 3 0
661 1 0.25 1 0
662 1 0 3 0
663 1 0.1556 3 0
664 1 0.3833 3 0
665 1 0.1556 3 0
666 1 0.3833 3 0
667 1 0.25 1 0
668 1 0 3 0
669 1 0.25 1 0
670 1 0 3 0
671 1 0.25 1 0
672 1 0 3 0
673 1 0.25 1 0
674 1 0 3 0
675 1 0.25 1 0
676 1 0 3 0
677 1 0.25 1 0
678 1 0 3 0
679 1 0.25 1 0
680 1 0 3 0
681 1 0.25 1 0
682 1 0 3 0
683 1 0.3833 3 0
684 1 0.3833 3 0
685 1 0.16 3 0
686 1 0.16 3 0
687 1 0.16 3 0
688 1 0.16 3 0
689 1 0.1556 3 0
690 1 0.1556 3 0
691 1 0.16 3 0
692 1 0.16 3 0
693 1 0.3833 3 0
694 1 0.3833 3 0
695 1 0.16 3 0
696 1 0.16 3 0
697 1 0.1556 3 0
698 1 0.1556 3 0
699 1 0.1556 3 0
700 1 0.1556 3 0
701 1 0.1556 3 0
702 1 0.1556 3 0
703 1 0.1556 3 0
704 1 0.1556 3 0
705 1 0.1556 3 0
706 1 0.1556 3 0
707 1 0.15 3 0
708 1 0.15 3 0
709 1 0.15 3 0
710 1 0.15 3 0
711 1 0.15 3 0
712 1 0.15 3 0
713 1 0.15 3 0
714 1 0.15 3 0
715 1 0.1556 3 0
716 1 0.1556 3 0
717 3 0.18 3 0 0.25 2 180 0.2 1 180
718 1 0.16 3 0
719 2 0.16 3 0 0.25 1 0
720 1 0.155556 3 0
721 1 0.155556 3 0
722 3 0.18 3 0 0.25 2 180 0.2 1 180
723 3 0.18 3 0 0.25 2 180 0.2 1 180
724 1 0.155556 3 0
725 1 0.155556 3 0
726 3 0.18 3 0 0.25 2 180 0.2 1 180
727 1 0.16 3 0
728 2 0.383 3 0 0.1 2 180
729 1 0.155556 3 0
730 1 0.155556 3 0
731 3 0.1 3 0 0.85 2 180 1.35 1 180
732 1 0.383333 3 0
733 2 0.383 3 0 0.1 2 180
734 1 0.16 3 0
735 1 0.155556 3 0
736 1 0.155556 3 0
737 2 0 3 0 0.25 1 0
738 2 0 3 0 0.25 1 0
739 2 0 3 0 0.25 1 0
740 1 0.16 3 0
741 1 0.155556 3 0
742 1 0.155556 3 0
743 1 0.15 3 0
744 1 0.166667 3 0
745 1 0.155556 3 0
746 1 0.155556 3 0
747 1 0.383333 3 0
748 1 0.155556 3 0
749 1 0 3 0

Atoms # full

1 1 9 -0.1444000005722046 27.899003556596107 35.26956027616325 30.74146632493228 -46 47 25
2 1 1 0.1523499991744757 28.917344346463786 34.26357344850298 31.4202611937716 -46 47 25
3 1 1 -0.1444000005722046 30.37875113818356 34.6504011218656 31.09307175904958 -46 47 25
4 1 1 0.1523499991744757 31.39269184641752 33.670814925724216 31.665131411465712 -46 47 25
5 1 1 -0.1444000005722046 32.02590881150543 34.17521174232809 33.11537860162884 -46 47 25
6 1 1 0.1523499991744757 33.05956407076843 33.438319974660416 33.63954465153953 -46 47 25
7 1 1 -0.1444000005722046 32.94405136369328 31.875428167246334 33.83278712503981 -46 47 25
8 1 1 0.1523499991744757 34.085366023008625 31.25867688127301 34.46669504597479 -46 47 25
9 1 1 -0.1444000005722046 33.902271310468116 29.595648638906205 34.760382282055666 -46 47 25
10 1 1 0.1523499991744757 33.60470159202093 28.934857694886375 33.54384550456569 -46 47 25
11 1 1 -0.1444000005722046 33.42657276668904 27.241567257290022 33.823099667905296 -46 47 25
12 1 1 0.1523499991744757 32.776719481715105 26.510103307869876 32.72477462472521 -46 47 25
13 1 1 -0.1444000005722046 33.262434353942886 24.944217095930256 32.63900237775222 -46 47 25
14 1 1 0.1523499991744757 32.34230618749527 24.053273164266677 31.90266451302992 -46 47 25
15 1 1 -0.1444000005722046 32.87779012943173 22.50822548518322 31.652335967079352 -46 47 25
16 1 1 0.1523499991744757 34.328728643200336 22.287585172415948 31.705095050110206 -46 47 25
17 1 1 -0.1444000005722046 34.80838926053613 20.92966276379732 31.168300868409986 -46 47 25
18 1 1 0.1523499991744757 36.34761765630534 20.58553752093368 31.362965937569136 -46 47 25
19 1 1 -0.1444000005722046 36.93659230917941 19.59646944023775 30.487753649584583 -46 47 25
20 1 1 0.1523499991744757 36.32497430499592 41.63200969283143 30.31855139219082 -46 46 25
21 1 9 -0.1444000005722046 37.261210850262955 40.41141498907316 30.214919429581794 -46 46 25
22 1 2 -0.6165500078350306 28.671503879284796 34.304542165746795 32.80902192264082 -46 47 25
23 1 2 -0.6165500078350306 32.4148887315842 33.580086613357864 30.763103680319478 -46 47 25
24 1 2 -0.6165500078350306 34.29200912596776 33.690342236014644 32.718467228156285 -46 47 25
25 1 2 -0.6165500078350306 35.23261548036535 31.390251116156975 33.58638895703173 -46 47 25
26 1 2 -0.6165500078350306 34.61143183501403 28.98247868908807 32.590796234974235 -46 47 25
27 1 2 -0.6165500078350306 33.069557951519386 27.085920295870416 31.461126416735354 -46 47 25
28 1 2 -0.6165500078350306 32.22460086652107 24.604555964195562 30.54743448051746 -46 47 25
29 1 2 -0.6165500078350306 34.74014126231532 22.371824717902793 33.06599094204535 -46 47 25
30 1 2 -0.6165500078350306 36.56648090105122 20.1203796916644 32.70968298025831 -46 47 25
31 1 2 -0.6165500078350306 35.420744529712685 41.3501170186277 31.43669635929628 -46 46 25
32 1 3 0.07220000028610229 27.966213620299808 36.41203327539057 31.41895609402968 -46 47 25
33 1 3 0.07220000028610229 28.25762832771659 35.51505158924074 29.980846241686358 -46 47 25
34 1 4 0.05494999699294566 28.73443736732701 33.46206227096644 31.07950773926732 -46 47 25
35 1 3 0.07220000028610229 30.421940548080276 34.742817725107834 30.153287276366218 -46 47 25
36 1 3 0.07220000028610229 30.497390963033613 35.762167660598415 31.40009714604611 -46 47 25
37 1 4 0.05494999699294566 30.955827937856597 32.95398712136767 31.91402478485573 -46 47 25
38 1 3 0.07220000028610229 32.301754274157794 35.4224418510438 32.952932229639075 -46 47 25
39 1 3 0.07220000028610229 31.07914149646807 34.01801066893624 33.63251798609277 -46 47 25
40 1 4 0.05494999699294566 33.62033697740641 33.75040704881428 34.423718442156634 -46 47 25
41 1 3 0.07220000028610229 32.556587190502064 31.545652212791733 32.88981424990168 -46 47 25
42 1 3 0.07220000028610229 32.06762703024005 31.893855976146078 34.35826951365359 -46 47 25
43 1 4 0.05494999699294566 34.383155400303764 31.663973388920063 35.29967710550146 -46 47 25
44 1 3 0.07220000028610229 34.777756715834315 29.407658767272956 35.304910154397305 -46 47 25
45 1 3 0.07220000028610229 33.22761126841604 29.83338900088012 35.628774899834085 -46 47 25
46 1 4 0.05494999699294566 32.51113970124416 28.864386923499705 33.163573651025416 -46 47 25
47 1 3 0.07220000028610229 34.72461474107128 27.123298766462668 34.12972068522373 -46 47 25
48 1 3 0.07220000028610229 32.908417535702114 27.126873072578285 34.67913425066437 -46 47 25
49 1 4 0.05494999699294566 31.8800865453841 26.447841164675644 32.82674221613667 -46 47 25
50 1 3 0.07220000028610229 34.36028001844002 25.12061768965333 31.99993417610651 -46 47 25
51 1 3 0.07220000028610229 33.39312875478086 24.656104456479728 33.518692806673556 -46 47 25
52 1 4 0.05494999699294566 31.40192268110919 24.166019507271344 32.13591686070404 -46 47 25
53 1 3 0.07220000028610229 32.06108102064838 22.073168364345594 32.39232718501683 -46 47 25
54 1 3 0.07220000028610229 32.2501171741998 22.29110751436313 30.782932964167696 -46 47 25
55 1 4 0.05494999699294566 34.69882935458511 23.01124795896372 31.297081798991353 -46 47 25
56 1 3 0.07220000028610229 34.22525669091672 20.232534689056283 31.42170653529685 -46 47 25
57 1 3 0.07220000028610229 34.56530359621151 20.75413535534675 30.208609643715906 -46 47 25
58 1 4 0.05494999699294566 36.71168834827196 21.61907360322067 31.357703081167244 -46 47 25
59 1 3 0.07220000028610229 36.90495606250614 19.815101045767502 29.19583463784612 -46 47 25
60 1 3 0.07220000028610229 37.97684772147655 19.10980568045973 30.59896832963704 -46 47 25
61 1 4 0.05494999699294566 35.43556894488229 41.4680136044493 29.496908956050888 -46 46 25
62 1 3 0.07220000028610229 36.8406968388414 39.49343785057196 30.949159634368225 -46 46 25
63 1 3 0.07220000028610229 37.91403037270649 40.501261109064146 30.895420476983105 -46 46 25
64 1 5 0.4092500116676092 27.898671215357346 34.24518213271806 32.90817633539933 -46 47 25
65 1 5 0.4092500116676092 32.64823093431346 34.47167314669822 30.281872156709397 -46 47 25
66 1 5 0.4092500116676092 33.61171471155235 33.47783036307359 31.825923267048093 -46 47 25
67 1 5 0.4092500116676092 35.02046813247636 32.26693739644621 33.37229226795789 -46 47 25
68 1 5 0.4092500116676092 35.0647012576351 30.037747763226363 32.765216753852215 -46 47 25
69 1 5 0.4092500116676092 33.68093718354315 27.778895670005234 31.725551023705798 -46 47 25
70 1 5 0.4092500116676092 32.46181901669355 25.64280526612817 30.832002663125234 -46 47 25
71 1 5 0.4092500116676092 35.570654140600446 22.632096447415343 33.10381164788707 -46 47 25
72 1 5 0.4092500116676092 37.38367261052129 20.137282279855267 32.83184999818319 -46 47 25
73 1 5 0.4092500116676092 35.767253164556244 18.85380715398481 32.05148800635937 -46 47 25
74 1 9 -0.1444000005722046 21.13716591152342 18.27972908238237 33.693880710608774 -45 47 25
75 1 1 0.1523499991744757 20.88133436021189 18.608633479135076 35.19522201115307 -45 47 25
76 1 1 -0.1444000005722046 19.79531343197269 41.3423958892069 35.81492611540242 -45 46 25
77 1 1 0.1523499991744757 19.138616064776457 18.58746362764331 37.11969552915582 -45 47 25
78 1 1 -0.1444000005722046 41.45483535255786 19.55444018389832 36.76293974110835 -46 47 25
79 1 1 0.1523499991744757 40.66905455202334 20.101498468579052 38.076445416653314 -46 47 25
80 1 1 -0.1444000005722046 39.69864047032813 21.335249825984224 37.765710775154886 -46 47 25
81 1 1 0.1523499991744757 40.25667049369341 22.579127469680152 37.57400165648585 -46 47 25
82 1 1 -0.1444000005722046 41.1336279400137 22.908771325700496 36.22610864056463 -46 47 25
83 1 1 0.1523499991744757 40.405667417664645 22.41006924868664 34.952981870433746 -46 47 25
84 1 1 -0.1444000005722046 41.40302408390195 22.61488259740854 33.68470872990436 -46 47 25
85 1 1 0.1523499991744757 40.96828746371667 22.05563874341186 32.31634150615003 -46 47 25
86 1 1 -0.1444000005722046 41.262701333886156 20.624754857185827 31.926203082600303 -46 47 25
87 1 1 0.1523499991744757 40.56097561848922 19.52696394544746 33.000638596996374 -46 47 25
88 1 1 -0.1444000005722046 40.66038514467654 41.61519658369666 32.598363319532304 -46 46 25
89 1 1 0.1523499991744757 40.05523068396259 40.67736910162539 33.682240521435475 -46 46 25
90 1 1 -0.1444000005722046 40.601205281481256 39.22273140120954 33.762034406843654 -46 46 25
91 1 1 0.1523499991744757 39.80177945442193 38.22163258364733 34.7099222609219 -46 46 25
92 1 1 -0.1444000005722046 39.85999602992793 38.44809570102177 36.2761156855063 -46 46 25
93 1 1 0.1523499991744757 39.6880931211799 39.75324783730203 36.868622465509986 -46 46 25
94 1 9 -0.1444000005722046 39.52703088331308 39.80571207999922 38.429942139551 -46 46 25
95 1 2 -0.6165500078350306 20.627639042427408 20.086540956109303 35.25289570933814 -45 47 25
96 1 2 -0.6165500078350306 20.18090082241887 19.180437758812616 37.853605507762616 -45 47 25
97 1 2 -0.6165500078350306 41.64331246657324 20.450334085533893 39.04700582055636 -46 47 25
98 1 2 -0.6165500078350306 39.19575977736662 23.603144052184703 37.56462348023121 -46 47 25
99 1 2 -0.6165500078350306 39.3562111587532 23.224084058684834 34.77437383128099 -46 47 25
100 1 2 -0.6165500078350306 39.553996390315426 22.326471581837303 32.0674002898108 -46 47 25
101 1 2 -0.6165500078350306 39.22951987207804 19.978590334340335 33.11866933754106 -46 47 25
102 1 2 -0.6165500078350306 38.65222605198361 40.689220015673634 33.550012411244595 -46 46 25
103 1 2 -0.6165500078350306 40.34673019402469 36.98991490758367 34.37814079617251 -46 46 25