LAMMPS data file via write_data, version 22 Jul 2025, timestep = 0, units = real

336 atoms
6 atom types
328 bonds
41 bond types
504 angles
63 angle types
728 dihedrals
91 dihedral types

-3.8009999999999997 24.401000000000003 xlo xhi
-3.766 34.90800000000001 ylo yhi
-3.855 33.795 zlo zhi

Masses

1 12.01
2 16
3 16
4 1.008
5 1.008
6 1.008

Pair Coeffs # lj/cut/coul/long

1 0.1078 3.39771
2 0.0726 3.1561
3 0.093 3.24287
4 0.0208 2.60018
5 0.0047 0.537925
6 0.0208 2.422

Bond Coeffs # harmonic

1 228.89 1.5354
2 282.27 1.4273
3 282.27 1.4273
4 282.27 1.4273
5 228.89 1.5354
6 228.89 1.5354
7 228.89 1.5354
8 228.89 1.5354
9 228.89 1.5354
10 228.89 1.5354
11 228.89 1.5354
12 282.27 1.4273
13 285.15 1.4242
14 345.25 1.0962
15 345.25 1.0962
16 345.25 1.0962
17 345.25 1.0962
18 345.25 1.0962
19 345.25 1.0962
20 345.25 1.0962
21 535.51 0.9725
22 228.89 1.5354
23 228.89 1.5354
24 228.89 1.5354
25 228.89 1.5354
26 228.89 1.5354
27 228.89 1.5354
28 345.25 1.0962
29 345.25 1.0962
30 345.25 1.0962
31 345.25 1.0962
32 345.25 1.0962
33 345.25 1.0962
34 228.89 1.5354
35 285.15 1.4242
36 345.25 1.0962
37 345.25 1.0962
38 345.25 1.0962
39 344.22 1.0969
40 344.22 1.0969
41 535.51 0.9725

Angle Coeffs # harmonic

1 77.44 107.62
2 77.44 107.62
3 88.33 113.6
4 98.44 107.89
5 77.44 107.62
6 77.44 107.62
7 59.87 112.63
8 59.87 112.63
9 59.87 112.63
10 59.87 112.63
11 59.87 112.63
12 59.87 112.63
13 59.87 112.63
14 59.87 112.63
15 77.44 107.62
16 76.79 109.66
17 97.11 111.11
18 43.27 109.68
19 43.27 109.68
20 43.27 109.68
21 43.27 109.68
22 43.27 109.68
23 43.27 109.68
24 43.27 109.68
25 43.27 109.68
26 43.27 109.68
27 43.27 109.68
28 43.27 109.68
29 65.13 107.39
30 35.8 107.73
31 35.8 107.73
32 35.8 107.73
33 59.87 112.63
34 59.87 112.63
35 59.87 112.63
36 59.87 112.63
37 59.87 112.63
38 59.87 112.63
39 43.27 109.68
40 43.27 109.68
41 43.27 109.68
42 43.27 109.68
43 43.27 109.68
44 43.27 109.68
45 43.27 109.68
46 43.27 109.68
47 43.27 109.68
48 43.27 109.68
49 43.27 109.68
50 43.27 109.68
51 76.79 109.66
52 43.28 109.59
53 43.28 109.59
54 43.27 109.68
55 43.27 109.68
56 43.27 109.68
57 65.13 107.39
58 56.29 110.38
59 56.29 110.38
60 35.8 107.73
61 35.8 107.73
62 35.8 107.73
63 35.64 108.55

Dihedral Coeffs # fourier

1 1 0.88 1 180
2 1 0.08 2 0
3 1 0.75 3 0
4 1 0.88 1 180
5 1 0.08 2 0
6 1 0.75 3 0
7 1 0.88 1 180
8 1 0.08 2 0
9 1 0.75 3 0
10 1 0.46 1 180
11 1 0.85 2 0
12 1 0.85 3 0
13 1 0.1556 3 0
14 1 0.1556 3 0
15 1 0.1556 3 0
16 1 0.52 3 0
17 1 0.52 3 0
18 1 0.1556 3 0
19 1 0.18 3 0
20 1 0.52 3 0
21 1 0.52 3 0
22 1 0.52 3 0
23 1 0.52 3 0
24 1 0.52 3 0
25 1 0.52 3 0
26 1 0.1556 3 0
27 1 0.18 3 0
28 1 0.25 1 0
29 1 0 3 0
30 1 0.25 1 0
31 1 0 3 0
32 1 0.25 1 0
33 1 0 3 0
34 1 0.25 1 0
35 1 0 3 0
36 1 0.25 1 0
37 1 0 3 0
38 1 0.25 1 0
39 1 0 3 0
40 1 0.25 1 0
41 1 0 3 0
42 1 0.13 3 0
43 1 0.13 3 0
44 1 0.13 3 0
45 1 0.13 3 0
46 1 0.13 3 0
47 1 0.13 3 0
48 1 0.13 3 0
49 1 0.13 3 0
50 1 0.06 3 0
51 1 0.13 3 0
52 1 0.1667 3 0
53 1 0.12 3 0
54 1 0.12 3 0
55 1 0.12 3 0
56 1 0.52 3 0
57 1 0.52 3 0
58 1 0.52 3 0
59 1 0.52 3 0
60 1 0.52 3 0
61 1 0.52 3 0
62 1 0.13 3 0
63 1 0.13 3 0
64 1 0.13 3 0
65 1 0.13 3 0
66 1 0.13 3 0
67 1 0.13 3 0
68 1 0.13 3 0
69 1 0.13 3 0
70 1 0.13 3 0
71 1 0.13 3 0
72 1 0.13 3 0
73 1 0.13 3 0
74 1 0.12 3 0
75 1 0.12 3 0
76 1 0.12 3 0
77 1 0.12 3 0
78 1 0.12 3 0
79 1 0.12 3 0
80 1 0.06 3 0
81 1 0.09 3 0
82 1 0.09 3 0
83 1 0.09 3 0
84 1 0.1556 3 0
85 1 0.1556 3 0
86 1 0.1556 3 0
87 1 0.1556 3 0
88 1 0.1556 3 0
89 1 0.1556 3 0
90 1 0.123 3 0
91 1 0.123 3 0

Atoms # full

1 1 1 -0.1010524286 5.643 4.382 4.54 0 0 0
2 1 1 0.5374475714 4.436 3.563 4.201 0 0 0
3 1 2 -0.4595524286 3.812 2.904 5.02 0 0 0
4 1 2 -0.4095524286 4.159 3.683 2.831 0 0 0
5 1 1 0.1688475714 3.062 2.986 2.269 0 0 0
6 1 1 -0.1066524286 2.748 1.69 2.695 0 0 0
7 1 1 -0.0456524286 1.643 1.024 2.166 0 0 0
8 1 1 -0.1086524286 0.867 1.633 1.185 0 0 0
9 1 1 -0.0206524286 1.204 2.906 0.721 0 0 0
10 1 1 -0.1609524286 2.313 3.59 1.246 0 0 0
11 1 1 0.5664475703 2.591 4.935 0.675 0 0 0
12 1 2 -0.4475524286 1.717 5.65 0.217 0 0 0
13 1 3 -0.5607524264 3.9 5.258 0.622 0 0 0
14 1 4 0.0844145712 5.883 4.239 5.599 0 0 0
15 1 4 0.0844145712 5.432 5.44 4.372 0 0 0
16 1 4 0.0844145712 6.5 4.054 3.948 0 0 0
17 1 4 0.1237475714 3.334 1.185 3.46 0 0 0
18 1 4 0.1047475714 1.382 0.034 2.534 0 0 0
19 1 4 0.1057475714 -0.001 1.118 0.782 0 0 0
20 1 4 0.1217475714 0.593 3.366 -0.055 0 0 0
21 1 5 0.4390475714 4.498 4.57 0.967 0 0 0
22 2 1 -0.0907 2.294 1.652 11.045 0 0 0
23 2 1 -0.0907 1.676 2.895 10.898 0 0 0
24 2 1 -0.0907 2.451 4.043 10.737 0 0 0
25 2 1 -0.0907 3.842 3.951 10.726 0 0 0
26 2 1 -0.0907 4.459 2.709 10.873 0 0 0
27 2 1 -0.0907 3.685 1.56 11.032 0 0 0
28 2 4 0.0907 1.69 0.757 11.17 0 0 0
29 2 4 0.0907 0.591 2.967 10.909 0 0 0
30 2 4 0.0907 1.969 5.011 10.62 0 0 0
31 2 4 0.0907 4.445 4.847 10.601 0 0 0
32 2 4 0.0907 5.544 2.637 10.865 0 0 0
33 2 4 0.0907 4.166 0.591 11.146 0 0 0
34 3 1 -0.1361001114 0.858 10.172 6.397 0 0 0
35 3 1 0.1263998886 2.193 10.813 6.077 0 0 0
36 3 3 -0.5998001092 2.295 11.053 4.681 0 0 0
37 3 4 0.0423668886 0.762 9.991 7.472 0 0 0
38 3 4 0.0423668886 0.748 9.22 5.868 0 0 0
39 3 4 0.0423668886 0.034 10.815 6.072 0 0 0
40 3 6 0.0431998886 3.021 10.168 6.384 0 0 0
41 3 6 0.0431998886 2.292 11.771 6.596 0 0 0
42 3 5 0.3959998886 2.217 10.196 4.229 0 0 0
43 4 1 -0.1010524286 19.744 4.382 4.54 0 0 0
44 4 1 0.5374475714 18.537 3.563 4.201 0 0 0
45 4 2 -0.4595524286 17.913 2.904 5.02 0 0 0
46 4 2 -0.4095524286 18.26 3.683 2.831 0 0 0
47 4 1 0.1688475714 17.163 2.986 2.269 0 0 0
48 4 1 -0.1066524286 16.849 1.69 2.695 0 0 0
49 4 1 -0.0456524286 15.744000000000002 1.024 2.166 0 0 0
50 4 1 -0.1086524286 14.968 1.633 1.185 0 0 0
51 4 1 -0.0206524286 15.305000000000001 2.906 0.721 0 0 0
52 4 1 -0.1609524286 16.414 3.59 1.246 0 0 0
53 4 1 0.5664475703 16.692 4.935 0.675 0 0 0
54 4 2 -0.4475524286 15.818000000000001 5.65 0.217 0 0 0
55 4 3 -0.5607524264 18.001 5.258 0.622 0 0 0
56 4 4 0.0844145712 19.984 4.239 5.599 0 0 0
57 4 4 0.0844145712 19.533 5.44 4.372 0 0 0
58 4 4 0.0844145712 20.601 4.054 3.948 0 0 0
59 4 4 0.1237475714 17.435000000000002 1.185 3.46 0 0 0
60 4 4 0.1047475714 15.483 0.034 2.534 0 0 0
61 4 4 0.1057475714 14.100000000000001 1.118 0.782 0 0 0
62 4 4 0.1217475714 14.694 3.366 -0.055 0 0 0
63 4 5 0.4390475714 18.599 4.57 0.967 0 0 0
64 5 1 -0.0907 16.395 1.652 11.045 0 0 0
65 5 1 -0.0907 15.777000000000001 2.895 10.898 0 0 0
66 5 1 -0.0907 16.552 4.043 10.737 0 0 0
67 5 1 -0.0907 17.943 3.951 10.726 0 0 0
68 5 1 -0.0907 18.560000000000002 2.709 10.873 0 0 0
69 5 1 -0.0907 17.786 1.56 11.032 0 0 0
70 5 4 0.0907 15.791 0.757 11.17 0 0 0
71 5 4 0.0907 14.692 2.967 10.909 0 0 0
72 5 4 0.0907 16.07 5.011 10.62 0 0 0
73 5 4 0.0907 18.546 4.847 10.601 0 0 0
74 5 4 0.0907 19.645 2.637 10.865 0 0 0
75 5 4 0.0907 18.267000000000003 0.591 11.146 0 0 0
76 6 1 -0.1361001114 14.959000000000001 10.172 6.397 0 0 0
77 6 1 0.1263998886 16.294 10.813 6.077 0 0 0
78 6 3 -0.5998001092 16.396 11.053 4.681 0 0 0
79 6 4 0.0423668886 14.863000000000001 9.991 7.472 0 0 0
80 6 4 0.0423668886 14.849 9.22 5.868 0 0 0
81 6 4 0.0423668886 14.135000000000002 10.815 6.072 0 0 0
82 6 6 0.0431998886 17.122 10.168 6.384 0 0 0
83 6 6 0.0431998886 16.393 11.771 6.596 0 0 0
84 6 5 0.3959998886 16.318 10.196 4.229 0 0 0
85 7 1 -0.1010524286 5.643 23.719 4.54 0 0 0
86 7 1 0.5374475714 4.436 22.900000000000002 4.201 0 0 0
87 7 2 -0.4595524286 3.812 22.241000000000003 5.02 0 0 0
88 7 2 -0.4095524286 4.159 23.020000000000003 2.831 0 0 0
89 7 1 0.1688475714 3.062 22.323000000000004 2.269 0 0 0
90 7 1 -0.1066524286 2.748 21.027000000000005 2.695 0 0 0
91 7 1 -0.0456524286 1.643 20.361000000000004 2.166 0 0 0
92 7 1 -0.1086524286 0.867 20.970000000000002 1.185 0 0 0
93 7 1 -0.0206524286 1.204 22.243000000000002 0.721 0 0 0
94 7 1 -0.1609524286 2.313 22.927000000000003 1.246 0 0 0
95 7 1 0.5664475703 2.591 24.272000000000002 0.675 0 0 0
96 7 2 -0.4475524286 1.717 24.987000000000002 0.217 0 0 0
97 7 3 -0.5607524264 3.9 24.595000000000002 0.622 0 0 0
98 7 4 0.0844145712 5.883 23.576000000000004 5.599 0 0 0
99 7 4 0.0844145712 5.432 24.777000000000005 4.372 0 0 0
100 7 4 0.0844145712 6.5 23.391000000000005 3.948 0 0 0
101 7 4 0.1237475714 3.334 20.522000000000002 3.46 0 0 0
102 7 4 0.1047475714 1.382 19.371000000000002 2.534 0 0 0
103 7 4 0.1057475714 -0.001 20.455000000000002 0.782 0 0 0
104 7 4 0.1217475714 0.593 22.703000000000003 -0.055 0 0 0
105 7 5 0.4390475714 4.498 23.907000000000004 0.967 0 0 0
106 8 1 -0.0907 2.294 20.989000000000004 11.045 0 0 0
107 8 1 -0.0907 1.676 22.232000000000003 10.898 0 0 0
108 8 1 -0.0907 2.451 23.380000000000003 10.737 0 0 0
109 8 1 -0.0907 3.842 23.288000000000004 10.726 0 0 0
110 8 1 -0.0907 4.459 22.046000000000003 10.873 0 0 0
111 8 1 -0.0907 3.685 20.897000000000002 11.032 0 0 0
112 8 4 0.0907 1.69 20.094000000000005 11.17 0 0 0
113 8 4 0.0907 0.591 22.304000000000002 10.909 0 0 0
114 8 4 0.0907 1.969 24.348000000000003 10.62 0 0 0
115 8 4 0.0907 4.445 24.184000000000005 10.601 0 0 0
116 8 4 0.0907 5.544 21.974000000000004 10.865 0 0 0
117 8 4 0.0907 4.166 19.928000000000004 11.146 0 0 0
118 9 1 -0.1361001114 0.858 29.509000000000004 6.397 0 0 0
119 9 1 0.1263998886 2.193 30.150000000000006 6.077 0 0 0
120 9 3 -0.5998001092 2.295 30.390000000000004 4.681 0 0 0
121 9 4 0.0423668886 0.762 29.328000000000003 7.472 0 0 0
122 9 4 0.0423668886 0.748 28.557000000000002 5.868 0 0 0
123 9 4 0.0423668886 0.034 30.152 6.072 0 0 0
124 9 6 0.0431998886 3.021 29.505000000000003 6.384 0 0 0
125 9 6 0.0431998886 2.292 31.108000000000004 6.596 0 0 0
126 9 5 0.3959998886 2.217 29.533 4.229 0 0 0
127 10 1 -0.1010524286 19.744 23.719 4.54 0 0 0
128 10 1 0.5374475714 18.537 22.900000000000002 4.201 0 0 0
129 10 2 -0.4595524286 17.913 22.241000000000003 5.02 0 0 0
130 10 2 -0.4095524286 18.26 23.020000000000003 2.831 0 0 0
131 10 1 0.1688475714 17.163 22.323000000000004 2.269 0 0 0
132 10 1 -0.1066524286 16.849 21.027000000000005 2.695 0 0 0
133 10 1 -0.0456524286 15.744000000000002 20.361000000000004 2.166 0 0 0
134 10 1 -0.1086524286 14.968 20.970000000000002 1.185 0 0 0
135 10 1 -0.0206524286 15.305000000000001 22.243000000000002 0.721 0 0 0
136 10 1 -0.1609524286 16.414 22.927000000000003 1.246 0 0 0
137 10 1 0.5664475703 16.692 24.272000000000002 0.675 0 0 0
138 10 2 -0.4475524286 15.818000000000001 24.987000000000002 0.217 0 0 0
139 10 3 -0.5607524264 18.001 24.595000000000002 0.622 0 0 0
140 10 4 0.0844145712 19.984 23.576000000000004 5.599 0 0 0
141 10 4 0.0844145712 19.533 24.777000000000005 4.372 0 0 0
142 10 4 0.0844145712 20.601 23.391000000000005 3.948 0 0 0
143 10 4 0.1237475714 17.435000000000002 20.522000000000002 3.46 0 0 0
144 10 4 0.1047475714 15.483 19.371000000000002 2.534 0 0 0
145 10 4 0.1057475714 14.100000000000001 20.455000000000002 0.782 0 0 0
146 10 4 0.1217475714 14.694 22.703000000000003 -0.055 0 0 0
147 10 5 0.4390475714 18.599 23.907000000000004 0.967 0 0 0
148 11 1 -0.0907 16.395 20.989000000000004 11.045 0 0 0
149 11 1 -0.0907 15.777000000000001 22.232000000000003 10.898 0 0 0
150 11 1 -0.0907 16.552 23.380000000000003 10.737 0 0 0
151 11 1 -0.0907 17.943 23.288000000000004 10.726 0 0 0
152 11 1 -0.0907 18.560000000000002 22.046000000000003 10.873 0 0 0
153 11 1 -0.0907 17.786 20.897000000000002 11.032 0 0 0
154 11 4 0.0907 15.791 20.094000000000005 11.17 0 0 0
155 11 4 0.0907 14.692 22.304000000000002 10.909 0 0 0
156 11 4 0.0907 16.07 24.348000000000003 10.62 0 0 0
157 11 4 0.0907 18.546 24.184000000000005 10.601 0 0 0
158 11 4 0.0907 19.645 21.974000000000004 10.865 0 0 0
159 11 4 0.0907 18.267000000000003 19.928000000000004 11.146 0 0 0
160 12 1 -0.1361001114 14.959000000000001 29.509000000000004 6.397 0 0 0
161 12 1 0.1263998886 16.294 30.150000000000006 6.077 0 0 0
162 12 3 -0.5998001092 16.396 30.390000000000004 4.681 0 0 0
163 12 4 0.0423668886 14.863000000000001 29.328000000000003 7.472 0 0 0
164 12 4 0.0423668886 14.849 28.557000000000002 5.868 0 0 0
165 12 4 0.0423668886 14.135000000000002 30.152 6.072 0 0 0
166 12 6 0.0431998886 17.122 29.505000000000003 6.384 0 0 0
167 12 6 0.0431998886 16.393 31.108000000000004 6.596 0 0 0
168 12 5 0.3959998886 16.318 29.533 4.229 0 0 0
169 13 1 -0.1010524286 5.643 4.382 23.365 0 0 0
170 13 1 0.5374475714 4.436 3.563 23.026 0 0 0
171 13 2 -0.4595524286 3.812 2.904 23.845 0 0 0
172 13 2 -0.4095524286 4.159 3.683 21.656 0 0 0
173 13 1 0.1688475714 3.062 2.986 21.094 0 0 0
174 13 1 -0.1066524286 2.748 1.69 21.52 0 0 0
175 13 1 -0.0456524286 1.643 1.024 20.991 0 0 0
176 13 1 -0.1086524286 0.867 1.633 20.009999999999998 0 0 0
177 13 1 -0.0206524286 1.204 2.906 19.546 0 0 0
178 13 1 -0.1609524286 2.313 3.59 20.070999999999998 0 0 0
179 13 1 0.5664475703 2.591 4.935 19.5 0 0 0
180 13 2 -0.4475524286 1.717 5.65 19.041999999999998 0 0 0
181 13 3 -0.5607524264 3.9 5.258 19.447 0 0 0
182 13 4 0.0844145712 5.883 4.239 24.424 0 0 0
183 13 4 0.0844145712 5.432 5.44 23.197 0 0 0
184 13 4 0.0844145712 6.5 4.054 22.773 0 0 0
185 13 4 0.1237475714 3.334 1.185 22.285 0 0 0
186 13 4 0.1047475714 1.382 0.034 21.358999999999998 0 0 0
187 13 4 0.1057475714 -0.001 1.118 19.607 0 0 0
188 13 4 0.1217475714 0.593 3.366 18.77 0 0 0
189 13 5 0.4390475714 4.498 4.57 19.791999999999998 0 0 0
190 14 1 -0.0907 2.294 1.652 29.869999999999997 0 0 0
191 14 1 -0.0907 1.676 2.895 29.723 0 0 0
192 14 1 -0.0907 2.451 4.043 29.561999999999998 0 0 0
193 14 1 -0.0907 3.842 3.951 29.551000000000002 0 0 0
194 14 1 -0.0907 4.459 2.709 29.698 0 0 0
195 14 1 -0.0907 3.685 1.56 29.857 0 0 0
196 14 4 0.0907 1.69 0.757 29.994999999999997 0 0 0
197 14 4 0.0907 0.591 2.967 29.734 0 0 0
198 14 4 0.0907 1.969 5.011 29.445 0 0 0
199 14 4 0.0907 4.445 4.847 29.426000000000002 0 0 0
200 14 4 0.0907 5.544 2.637 29.689999999999998 0 0 0
201 14 4 0.0907 4.166 0.591 29.971 0 0 0
202 15 1 -0.1361001114 0.858 10.172 25.222 0 0 0
203 15 1 0.1263998886 2.193 10.813 24.902 0 0 0
204 15 3 -0.5998001092 2.295 11.053 23.506 0 0 0
205 15 4 0.0423668886 0.762 9.991 26.297 0 0 0
206 15 4 0.0423668886 0.748 9.22 24.692999999999998 0 0 0
207 15 4 0.0423668886 0.034 10.815 24.897 0 0 0
208 15 6 0.0431998886 3.021 10.168 25.209 0 0 0
209 15 6 0.0431998886 2.292 11.771 25.421 0 0 0
210 15 5 0.3959998886 2.217 10.196 23.054 0 0 0
211 16 1 -0.1010524286 19.744 4.382 23.365 0 0 0
212 16 1 0.5374475714 18.537 3.563 23.026 0 0 0
213 16 2 -0.4595524286 17.913 2.904 23.845 0 0 0
214 16 2 -0.4095524286 18.26 3.683 21.656 0 0 0
215 16 1 0.1688475714 17.163 2.986 21.094 0 0 0
216 16 1 -0.1066524286 16.849 1.69 21.52 0 0 0
217 16 1 -0.0456524286 15.744000000000002 1.024 20.991 0 0 0
218 16 1 -0.1086524286 14.968 1.633 20.009999999999998 0 0 0
219 16 1 -0.0206524286 15.305000000000001 2.906 19.546 0 0 0
220 16 1 -0.1609524286 16.414 3.59 20.070999999999998 0 0 0
221 16 1 0.5664475703 16.692 4.935 19.5 0 0 0
222 16 2 -0.4475524286 15.818000000000001 5.65 19.041999999999998 0 0 0
223 16 3 -0.5607524264 18.001 5.258 19.447 0 0 0
224 16 4 0.0844145712 19.984 4.239 24.424 0 0 0
225 16 4 0.0844145712 19.533 5.44 23.197 0 0 0
226 16 4 0.0844145712 20.601 4.054 22.773 0 0 0
227 16 4 0.1237475714 17.435000000000002 1.185 22.285 0 0 0
228 16 4 0.1047475714 15.483 0.034 21.358999999999998 0 0 0
229 16 4 0.1057475714 14.100000000000001 1.118 19.607 0 0 0
230 16 4 0.1217475714 14.694 3.366 18.77 0 0 0
231 16 5 0.4390475714 18.599 4.57 19.791999999999998 0 0 0
232 17 1 -0.0907 16.395 1.652 29.869999999999997 0 0 0
233 17 1 -0.0907 15.777000000000001 2.895 29.723 0 0 0
234 17 1 -0.0907 16.552 4.043 29.561999999999998 0 0 0
235 17 1 -0.0907 17.943 3.951 29.551000000000002 0 0 0
236 17 1 -0.0907 18.560000000000002 2.709 29.698 0 0 0
237 17 1 -0.0907 17.786 1.56 29.857 0 0 0
238 17 4 0.0907 15.791 0.757 29.994999999999997 0 0 0
239 17 4 0.0907 14.692 2.967 29.734 0 0 0
240 17 4 0.0907 16.07 5.011 29.445 0 0 0
241 17 4 0.0907 18.546 4.847 29.426000000000002 0 0 0
242 17 4 0.0907 19.645 2.637 29.689999999999998 0 0 0
243 17 4 0.0907 18.267000000000003 0.591 29.971 0 0 0
244 18 1 -0.1361001114 14.959000000000001 10.172 25.222 0 0 0
245 18 1 0.1263998886 16.294 10.813 24.902 0 0 0
246 18 3 -0.5998001092 16.396 11.053 23.506 0 0 0
247 18 4 0.0423668886 14.863000000000001 9.991 26.297 0 0 0
248 18 4 0.0423668886 14.849 9.22 24.692999999999998 0 0 0
249 18 4 0.0423668886 14.135000000000002 10.815 24.897 0 0 0
250 18 6 0.0431998886 17.122 10.168 25.209 0 0 0
251 18 6 0.0431998886 16.393 11.771 25.421 0 0 0
252 18 5 0.3959998886 16.318 10.196 23.054 0 0 0
253 19 1 -0.1010524286 5.643 23.719 23.365 0 0 0
254 19 1 0.5374475714 4.436 22.900000000000002 23.026 0 0 0
255 19 2 -0.4595524286 3.812 22.241000000000003 23.845 0 0 0
256 19 2 -0.4095524286 4.159 23.020000000000003 21.656 0 0 0
257 19 1 0.1688475714 3.062 22.323000000000004 21.094 0 0 0
258 19 1 -0.1066524286 2.748 21.027000000000005 21.52 0 0 0
259 19 1 -0.0456524286 1.643 20.361000000000004 20.991 0 0 0
260 19 1 -0.1086524286 0.867 20.970000000000002 20.009999999999998 0 0 0
261 19 1 -0.0206524286 1.204 22.243000000000002 19.546 0 0 0
262 19 1 -0.1609524286 2.313 22.927000000000003 20.070999999999998 0 0 0
263 19 1 0.5664475703 2.591 24.272000000000002 19.5 0 0 0
264 19 2 -0.4475524286 1.717 24.987000000000002 19.041999999999998 0 0 0
265 19 3 -0.5607524264 3.9 24.595000000000002 19.447 0 0 0
266 19 4 0.0844145712 5.883 23.576000000000004 24.424 0 0 0
267 19 4 0.0844145712 5.432 24.777000000000005 23.197 0 0 0
268 19 4 0.0844145712 6.5 23.391000000000005 22.773 0 0 0
269 19 4 0.1237475714 3.334 20.522000000000002 22.285 0 0 0
270 19 4 0.1047475714 1.382 19.371000000000002 21.358999999999998 0 0 0
271 19 4 0.1057475714 -0.001 20.455000000000002 19.607 0 0 0
272 19 4 0.1217475714 0.593 22.703000000000003 18.77 0 0 0
273 19 5 0.4390475714 4.498 23.907000000000004 19.791999999999998 0 0 0
274 20 1 -0.0907 2.294 20.989000000000004 29.869999999999997 0 0 0
275 20 1 -0.0907 1.676 22.232000000000003 29.723 0 0 0
276 20 1 -0.0907 2.451 23.380000000000003 29.561999999999998 0 0 0
277 20 1 -0.0907 3.842 23.288000000000004 29.551000000000002 0 0 0
278 20 1 -0.0907 4.459 22.046000000000003 29.698 0 0 0
279 20 1 -0.0907 3.685 20.897000000000002 29.857 0 0 0
280 20 4 0.0907 1.69 20.094000000000005 29.994999999999997 0 0 0
281 20 4 0.0907 0.591 22.304000000000002 29.734 0 0 0
282 20 4 0.0907 1.969 24.348000000000003 29.445 0 0 0
283 20 4 0.0907 4.445 24.184000000000005 29.426000000000002 0 0 0
284 20 4 0.0907 5.544 21.974000000000004 29.689999999999998 0 0 0
285 20 4 0.0907 4.166 19.928000000000004 29.971 0 0 0
286 21 1 -0.1361001114 0.858 29.509000000000004 25.222 0 0 0
287 21 1 0.1263998886 2.193 30.150000000000006 24.902 0 0 0
288 21 3 -0.5998001092 2.295 30.390000000000004 23.506 0 0 0
289 21 4 0.0423668886 0.762 29.328000000000003 26.297 0 0 0
290 21 4 0.0423668886 0.748 28.557000000000002 24.692999999999998 0 0 0
291 21 4 0.0423668886 0.034 30.152 24.897 0 0 0
292 21 6 0.0431998886 3.021 29.505000000000003 25.209 0 0 0
293 21 6 0.0431998886 2.292 31.108000000000004 25.421 0 0 0
294 21 5 0.3959998886 2.217 29.533 23.054 0 0 0
295 22 1 -0.1010524286 19.744 23.719 23.365 0 0 0
296 22 1 0.5374475714 18.537 22.900000000000002 23.026 0 0 0
297 22 2 -0.4595524286 17.913 22.241000000000003 23.845 0 0 0
298 22 2 -0.4095524286 18.26 23.020000000000003 21.656 0 0 0
299 22 1 0.1688475714 17.163 22.323000000000004 21.094 0 0 0
300 22 1 -0.1066524286 16.849 21.027000000000005 21.52 0 0 0
301 22 1 -0.0456524286 15.744000000000002 20.361000000000004 20.991 0 0 0
302 22 1 -0.1086524286 14.968 20.970000000000002 20.009999999999998 0 0 0
303 22 1 -0.0206524286 15.305000000000001 22.243000000000002 19.546 0 0 0
304 22 1 -0.1609524286 16.414 22.927000000000003 20.070999999999998 0 0 0
305 22 1 0.5664475703 16.692 24.272000000000002 19.5 0 0 0
306 22 2 -0.4475524286 15.818000000000001 24.987000000000002 19.041999999999998 0 0 0
307 22 3 -0.5607524264 18.001 24.595000000000002 19.447 0 0 0
308 22 4 0.0844145712 19.984 23.576000000000004 24.424 0 0 0
309 22 4 0.0844145712 19.533 24.777000000000005 23.197 0 0 0
310 22 4 0.0844145712 20.601 23.391000000000005 22.773 0 0 0
311 22 4 0.1237475714 17.435000000000002 20.522000000000002 22.285 0 0 0
312 22 4 0.1047475714 15.483 19.371000000000002 21.358999999999998 0 0 0
313 22 4 0.1057475714 14.100000000000001 20.455000000000002 19.607 0 0 0
314 22 4 0.1217475714 14.694 22.703000000000003 18.77 0 0 0
315 22 5 0.4390475714 18.599 23.907000000000004 19.791999999999998 0 0 0
316 23 1 -0.0907 16.395 20.989000000000004 29.869999999999997 0 0 0
317 23 1 -0.0907 15.777000000000001 22.232000000000003 29.723 0 0 0
318 23 1 -0.0907 16.552 23.380000000000003 29.561999999999998 0 0 0
319 23 1 -0.0907 17.943 23.288000000000004 29.551000000000002 0 0 0
320 23 1 -0.0907 18.560000000000002 22.046000000000003 29.698 0 0 0
321 23 1 -0.0907 17.786 20.897000000000002 29.857 0 0 0
322 23 4 0.0907 15.791 20.094000000000005 29.994999999999997 0 0 0
323 23 4 0.0907 14.692 22.304000000000002 29.734 0 0 0
324 23 4 0.0907 16.07 24.348000000000003 29.445 0 0 0
325 23 4 0.0907 18.546 24.184000000000005 29.426000000000002 0 0 0
326 23 4 0.0907 19.645 21.974000000000004 29.689999999999998 0 0 0
327 23 4 0.0907 18.267000000000003 19.928000000000004 29.971 0 0 0
328 24 1 -0.1361001114 14.959000000000001 29.509000000000004 25.222 0 0 0
329 24 1 0.1263998886 16.294 30.150000000000006 24.902 0 0 0
330 24 3 -0.5998001092 16.396 30.390000000000004 23.506 0 0 0
331 24 4 0.0423668886 14.863000000000001 29.328000000000003 26.297 0 0 0
332 24 4 0.0423668886 14.849 28.557000000000002 24.692999999999998 0 0 0
333 24 4 0.0423668886 14.135000000000002 30.152 24.897 0 0 0
334 24 6 0.0431998886 17.122 29.505000000000003 25.209 0 0 0
335 24 6 0.0431998886 16.393 31.108000000000004 25.421 0 0 0
336 24 5 0.3959998886 16.318 29.533 23.054 0 0 0

Velocities

7 0 0 0
8 0 0 0
19 0 0 0
5 0 0 0
9 0 0 0
10 0 0 0
11 0 0 0
12 0 0 0
20 0 0 0
13 0 0 0
21 0 0 0
6 0 0 0
18 0 0 0
17 0 0 0
1 0 0 0
2 0 0 0
3 0 0 0
4 0 0 0
14 0 0 0
15 0 0 0
16 0 0 0
34 0 0 0
35 0 0 0
36 0 0 0
37 0 0 0
38 0 0 0
39 0 0 0
40 0 0 0
41 0 0 0
42 0 0 0
22 0 0 0
28 0 0 0
27 0 0 0
32 0 0 0
33 0 0 0
23 0 0 0
24 0 0 0
29 0 0 0
30 0 0 0
25 0 0 0
26 0 0 0
31 0 0 0
175 0 0 0
176 0 0 0
187 0 0 0
173 0 0 0
177 0 0 0
178 0 0 0
179 0 0 0
180 0 0 0
188 0 0 0
181 0 0 0
189 0 0 0
174 0 0 0
186 0 0 0
185 0 0 0
169 0 0 0
170 0 0 0
171 0 0 0
172 0 0 0
182 0 0 0
183 0 0 0
184 0 0 0
202 0 0 0
203 0 0 0
204 0 0 0
205 0 0 0
206 0 0 0
207 0 0 0
208 0 0 0
209 0 0 0
210 0 0 0
190 0 0 0
196 0 0 0
195 0 0 0
200 0 0 0
201 0 0 0
191 0 0 0
192 0 0 0
197 0 0 0
198 0 0 0
193 0 0 0
194 0 0 0
199 0 0 0
91 0 0 0
92 0 0 0
103 0 0 0
89 0 0 0
93 0 0 0
94 0 0 0
95 0 0 0
96 0 0 0
104 0 0 0
97 0 0 0
105 0 0 0
90 0 0 0
102 0 0 0
101 0 0 0
85 0 0 0
86 0 0 0
87 0 0 0
88 0 0 0
98 0 0 0
99 0 0 0
100 0 0 0
118 0 0 0
119 0 0 0
120 0 0 0
121 0 0 0
122 0 0 0
123 0 0 0
124 0 0 0
125 0 0 0
126 0 0 0
106 0 0 0
112 0 0 0
111 0 0 0
116 0 0 0
117 0 0 0
107 0 0 0
108 0 0 0
113 0 0 0
114 0 0 0
109 0 0 0
110 0 0 0
115 0 0 0
259 0 0 0
260 0 0 0
271 0 0 0
257 0 0 0
261 0 0 0
262 0 0 0
263 0 0 0
264 0 0 0
272 0 0 0
265 0 0 0
273 0 0 0
258 0 0 0
270 0 0 0
269 0 0 0
253 0 0 0
254 0 0 0
255 0 0 0
256 0 0 0
266 0 0 0
267 0 0 0
268 0 0 0
286 0 0 0
287 0 0 0
288 0 0 0
289 0 0 0
290 0 0 0
291 0 0 0
292 0 0 0
293 0 0 0
294 0 0 0
274 0 0 0
280 0 0 0
279 0 0 0
284 0 0 0
285 0 0 0
275 0 0 0
276 0 0 0
281 0 0 0
282 0 0 0
277 0 0 0
278 0 0 0
283 0 0 0
49 0 0 0
50 0 0 0
61 0 0 0
47 0 0 0
51 0 0 0
52 0 0 0
53 0 0 0
54 0 0 0
62 0 0 0
55 0 0 0
63 0 0 0
48 0 0 0
60 0 0 0
59 0 0 0
43 0 0 0
44 0 0 0
45 0 0 0
46 0 0 0
56 0 0 0
57 0 0 0
58 0 0 0
76 0 0 0
77 0 0 0
78 0 0 0
79 0 0 0
80 0 0 0
81 0 0 0
82 0 0 0
83 0 0 0
84 0 0 0
64 0 0 0
70 0 0 0
69 0 0 0
74 0 0 0
75 0 0 0
65 0 0 0
66 0 0 0
71 0 0 0
72 0 0 0
67 0 0 0
68 0 0 0
73 0 0 0
217 0 0 0
218 0 0 0
229 0 0 0
215 0 0 0
219 0 0 0
220 0 0 0
221 0 0 0
222 0 0 0
230 0 0 0
223 0 0 0
231 0 0 0
216 0 0 0
228 0 0 0
227 0 0 0
211 0 0 0
212 0 0 0
213 0 0 0
214 0 0 0
224 0 0 0
225 0 0 0
226 0 0 0
244 0 0 0
245 0 0 0
246 0 0 0
247 0 0 0
248 0 0 0
249 0 0 0
250 0 0 0
251 0 0 0
252 0 0 0
232 0 0 0
238 0 0 0
237 0 0 0
242 0 0 0
243 0 0 0
233 0 0 0
234 0 0 0
239 0 0 0
240 0 0 0
235 0 0 0
236 0 0 0
241 0 0 0
133 0 0 0
134 0 0 0
145 0 0 0
131 0 0 0
135 0 0 0
136 0 0 0
137 0 0 0
138 0 0 0
146 0 0 0
139 0 0 0
147 0 0 0
132 0 0 0
144 0 0 0
143 0 0 0
127 0 0 0
128 0 0 0
129 0 0 0
130 0 0 0
140 0 0 0
141 0 0 0
142 0 0 0
160 0 0 0
161 0 0 0
162 0 0 0
163 0 0 0
164 0 0 0
165 0 0 0
166 0 0 0
167 0 0 0
168 0 0 0
148 0 0 0
154 0 0 0
153 0 0 0
158 0 0 0
159 0 0 0
149 0 0 0
150 0 0 0
155 0 0 0
156 0 0 0
151 0 0 0
152 0 0 0
157 0 0 0
301 0 0 0
302 0 0 0
313 0 0 0
299 0 0 0
303 0 0 0
304 0 0 0
305 0 0 0
306 0 0 0
314 0 0 0
307 0 0 0
315 0 0 0
300 0 0 0
312 0 0 0
311 0 0 0
295 0 0 0
296 0 0 0
297 0 0 0
298 0 0 0
308 0 0 0
309 0 0 0
310 0 0 0
328 0 0 0
329 0 0 0
330 0 0 0
331 0 0 0
332 0 0 0
333 0 0 0
334 0 0 0
335 0 0 0
336 0 0 0
316 0 0 0
322 0 0 0
321 0 0 0
326 0 0 0
327 0 0 0
317 0 0 0
318 0 0 0
323 0 0 0
324 0 0 0
319 0 0 0
320 0 0 0
325 0 0 0

Bonds

1 8 7 8
2 18 7 18
3 9 8 9
4 19 8 19
5 5 5 6
6 6 5 10
7 10 9 10
8 20 9 20
9 11 10 11
10 12 11 12
11 13 11 13
12 21 13 21
13 7 6 7
14 17 6 17
15 1 1 2
16 14 1 14
17 15 1 15
18 16 1 16
19 2 2 3
20 3 2 4
21 4 4 5
22 34 34 35
23 36 34 37
24 37 34 38
25 38 34 39
26 35 35 36
27 39 35 40
28 40 35 41
29 41 36 42
30 22 22 23
31 23 22 27
32 28 22 28
33 33 27 33
34 24 23 24
35 29 23 29
36 25 24 25
37 30 24 30
38 26 25 26
39 31 25 31
40 27 26 27
41 32 26 32
42 8 175 176
43 18 175 186
44 9 176 177
45 19 176 187
46 5 173 174
47 6 173 178
48 10 177 178
49 20 177 188
50 11 178 179
51 12 179 180
52 13 179 181
53 21 181 189
54 7 174 175
55 17 174 185
56 1 169 170
57 14 169 182
58 15 169 183
59 16 169 184
60 2 170 171
61 3 170 172
62 4 172 173
63 34 202 203
64 36 202 205
65 37 202 206
66 38 202 207
67 35 203 204
68 39 203 208
69 40 203 209
70 41 204 210
71 22 190 191
72 23 190 195
73 28 190 196
74 33 195 201
75 24 191 192
76 29 191 197
77 25 192 193
78 30 192 198
79 26 193 194
80 31 193 199
81 27 194 195
82 32 194 200
83 8 91 92
84 18 91 102
85 9 92 93
86 19 92 103
87 5 89 90
88 6 89 94
89 10 93 94
90 20 93 104
91 11 94 95
92 12 95 96
93 13 95 97
94 21 97 105
95 7 90 91
96 17 90 101
97 1 85 86
98 14 85 98
99 15 85 99
100 16 85 100
101 2 86 87
102 3 86 88
103 4 88 89
104 34 118 119
105 36 118 121
106 37 118 122
107 38 118 123
108 35 119 120
109 39 119 124
110 40 119 125
111 41 120 126
112 22 106 107
113 23 106 111
114 28 106 112
115 33 111 117
116 24 107 108
117 29 107 113
118 25 108 109
119 30 108 114
120 26 109 110
121 31 109 115
122 27 110 111
123 32 110 116
124 8 259 260
125 18 259 270
126 9 260 261
127 19 260 271
128 5 257 258
129 6 257 262
130 10 261 262
131 20 261 272
132 11 262 263
133 12 263 264
134 13 263 265
135 21 265 273
136 7 258 259
137 17 258 269
138 1 253 254
139 14 253 266
140 15 253 267
141 16 253 268
142 2 254 255
143 3 254 256
144 4 256 257
145 34 286 287
146 36 286 289
147 37 286 290
148 38 286 291
149 35 287 288
150 39 287 292
151 40 287 293
152 41 288 294
153 22 274 275
154 23 274 279
155 28 274 280
156 33 279 285
157 24 275 276
158 29 275 281
159 25 276 277
160 30 276 282
161 26 277 278
162 31 277 283
163 27 278 279
164 32 278 284
165 8 49 50
166 18 49 60
167 9 50 51
168 19 50 61
169 5 47 48
170 6 47 52
171 10 51 52
172 20 51 62
173 11 52 53
174 12 53 54
175 13 53 55
176 21 55 63
177 7 48 49
178 17 48 59
179 1 43 44
180 14 43 56
181 15 43 57
182 16 43 58
183 2 44 45
184 3 44 46
185 4 46 47
186 34 76 77
187 36 76 79
188 37 76 80
189 38 76 81
190 35 77 78
191 39 77 82
192 40 77 83
193 41 78 84
194 22 64 65
195 23 64 69
196 28 64 70
197 33 69 75
198 24 65 66
199 29 65 71
200 25 66 67
201 30 66 72
202 26 67 68
203 31 67 73
204 27 68 69
205 32 68 74
206 8 217 218
207 18 217 228
208 9 218 219
209 19 218 229
210 5 215 216
211 6 215 220
212 10 219 220
213 20 219 230
214 11 220 221
215 12 221 222
216 13 221 223
217 21 223 231
218 7 216 217
219 17 216 227
220 1 211 212
221 14 211 224
222 15 211 225
223 16 211 226
224 2 212 213
225 3 212 214
226 4 214 215
227 34 244 245
228 36 244 247
229 37 244 248
230 38 244 249
231 35 245 246
232 39 245 250
233 40 245 251
234 41 246 252
235 22 232 233
236 23 232 237
237 28 232 238
238 33 237 243
239 24 233 234
240 29 233 239
241 25 234 235
242 30 234 240
243 26 235 236
244 31 235 241
245 27 236 237
246 32 236 242
247 8 133 134
248 18 133 144
249 9 134 135
250 19 134 145
251 5 131 132
252 6 131 136
253 10 135 136
254 20 135 146
255 11 136 137
256 12 137 138
257 13 137 139
258 21 139 147
259 7 132 133
260 17 132 143
261 1 127 128
262 14 127 140
263 15 127 141
264 16 127 142
265 2 128 129
266 3 128 130
267 4 130 131
268 34 160 161
269 36 160 163
270 37 160 164
271 38 160 165
272 35 161 162
273 39 161 166
274 40 161 167
275 41 162 168
276 22 148 149
277 23 148 153
278 28 148 154
279 33 153 159
280 24 149 150
281 29 149 155
282 25 150 151
283 30 150 156
284 26 151 152
285 31 151 157
286 27 152 153
287 32 152 158
288 8 301 302
289 18 301 312
290 9 302 303
291 19 302 313
292 5 299 300
293 6 299 304
294 10 303 304
295 20 303 314
296 11 304 305
297 12 305 306
298 13 305 307
299 21 307 315
300 7 300 301
301 17 300 311
302 1 295 296
303 14 295 308
304 15 295 309
305 16 295 310
306 2 296 297
307 3 296 298
308 4 298 299
309 34 328 329
310 36 328 331
311 37 328 332
312 38 328 333
313 35 329 330
314 39 329 334
315 40 329 335
316 41 330 336
317 22 316 317
318 23 316 321
319 28 316 322
320 33 321 327
321 24 317 318
322 29 317 323
323 25 318 319
324 30 318 324
325 26 319 320
326 31 319 325
327 27 320 321
328 32 320 326

Angles

1 11 6 7 8
2 22 6 7 18
3 25 8 7 18
4 12 7 8 9
5 24 7 8 19
6 27 9 8 19
7 5 4 5 6
8 6 4 5 10
9 10 6 5 10
10 13 8 9 10
11 26 8 9 20
12 28 10 9 20
13 8 5 10 9
14 9 5 10 11
15 14 9 10 11
16 15 10 11 12
17 16 10 11 13
18 17 12 11 13
19 29 11 13 21
20 7 5 6 7
21 21 5 6 17
22 23 7 6 17
23 18 2 1 14
24 19 2 1 15
25 20 2 1 16
26 30 14 1 15
27 31 14 1 16
28 32 15 1 16
29 1 1 2 3
30 2 1 2 4
31 4 3 2 4
32 3 2 4 5