LAMMPS data file via write_data, version 22 Jul 2025, timestep = 0, units = real

90 atoms
6 atom types
85 bonds
85 bond types
133 angles
133 angle types
163 dihedrals
163 dihedral types

-3.832 13.259 xlo xhi
-3.754 13.873000000000001 ylo yhi
-3.783 13.825 zlo zhi

Masses

1 12.01
2 16
3 16
4 1.008
5 1.008
6 1.008

Pair Coeffs # lj/cut/coul/long

1 0.1078 3.39771
2 0.0726 3.1561
3 0.093 3.24287
4 0.0208 2.60018
5 0.0047 0.537925
6 0.0208 2.422

Bond Coeffs # harmonic

1 228.89 1.5354
2 282.27 1.4273
3 282.27 1.4273
4 282.27 1.4273
5 228.89 1.5354
6 228.89 1.5354
7 228.89 1.5354
8 228.89 1.5354
9 228.89 1.5354
10 228.89 1.5354
11 228.89 1.5354
12 282.27 1.4273
13 285.15 1.4242
14 345.25 1.0962
15 345.25 1.0962
16 345.25 1.0962
17 345.25 1.0962
18 345.25 1.0962
19 345.25 1.0962
20 345.25 1.0962
21 535.51 0.9725
22 228.89 1.5354
23 228.89 1.5354
24 228.89 1.5354
25 228.89 1.5354
26 228.89 1.5354
27 228.89 1.5354
28 345.25 1.0962
29 345.25 1.0962
30 345.25 1.0962
31 345.25 1.0962
32 345.25 1.0962
33 345.25 1.0962
34 228.89 1.5354
35 228.89 1.5354
36 228.89 1.5354
37 228.89 1.5354
38 228.89 1.5354
39 228.89 1.5354
40 345.25 1.0962
41 345.25 1.0962
42 345.25 1.0962
43 345.25 1.0962
44 345.25 1.0962
45 345.25 1.0962
46 228.89 1.5354
47 285.15 1.4242
48 345.25 1.0962
49 345.25 1.0962
50 345.25 1.0962
51 344.22 1.0969
52 344.22 1.0969
53 535.51 0.9725
54 228.89 1.5354
55 285.15 1.4242
56 345.25 1.0962
57 345.25 1.0962
58 345.25 1.0962
59 344.22 1.0969
60 344.22 1.0969
61 535.51 0.9725
62 228.89 1.5354
63 285.15 1.4242
64 345.25 1.0962
65 345.25 1.0962
66 345.25 1.0962
67 344.22 1.0969
68 344.22 1.0969
69 535.51 0.9725
70 228.89 1.5354
71 285.15 1.4242
72 345.25 1.0962
73 345.25 1.0962
74 345.25 1.0962
75 344.22 1.0969
76 344.22 1.0969
77 535.51 0.9725
78 228.89 1.5354
79 285.15 1.4242
80 345.25 1.0962
81 345.25 1.0962
82 345.25 1.0962
83 344.22 1.0969
84 344.22 1.0969
85 535.51 0.9725

Angle Coeffs # harmonic

1 77.44 107.62
2 77.44 107.62
3 88.33 113.6
4 98.44 107.89
5 77.44 107.62
6 77.44 107.62
7 59.87 112.63
8 59.87 112.63
9 59.87 112.63
10 59.87 112.63
11 59.87 112.63
12 59.87 112.63
13 59.87 112.63
14 59.87 112.63
15 77.44 107.62
16 76.79 109.66
17 97.11 111.11
18 43.27 109.68
19 43.27 109.68
20 43.27 109.68
21 43.27 109.68
22 43.27 109.68
23 43.27 109.68
24 43.27 109.68
25 43.27 109.68
26 43.27 109.68
27 43.27 109.68
28 43.27 109.68
29 65.13 107.39
30 35.8 107.73
31 35.8 107.73
32 35.8 107.73
33 59.87 112.63
34 59.87 112.63
35 59.87 112.63
36 59.87 112.63
37 59.87 112.63
38 59.87 112.63
39 43.27 109.68
40 43.27 109.68
41 43.27 109.68
42 43.27 109.68
43 43.27 109.68
44 43.27 109.68
45 43.27 109.68
46 43.27 109.68
47 43.27 109.68
48 43.27 109.68
49 43.27 109.68
50 43.27 109.68
51 59.87 112.63
52 59.87 112.63
53 59.87 112.63
54 59.87 112.63
55 59.87 112.63
56 59.87 112.63
57 43.27 109.68
58 43.27 109.68
59 43.27 109.68
60 43.27 109.68
61 43.27 109.68
62 43.27 109.68
63 43.27 109.68
64 43.27 109.68
65 43.27 109.68
66 43.27 109.68
67 43.27 109.68
68 43.27 109.68
69 76.79 109.66
70 43.28 109.59
71 43.28 109.59
72 43.27 109.68
73 43.27 109.68
74 43.27 109.68
75 65.13 107.39
76 56.29 110.38
77 56.29 110.38
78 35.8 107.73
79 35.8 107.73
80 35.8 107.73
81 35.64 108.55
82 76.79 109.66
83 43.28 109.59
84 43.28 109.59
85 43.27 109.68
86 43.27 109.68
87 43.27 109.68
88 65.13 107.39
89 56.29 110.38
90 56.29 110.38
91 35.8 107.73
92 35.8 107.73
93 35.8 107.73
94 35.64 108.55
95 76.79 109.66
96 43.28 109.59
97 43.28 109.59
98 43.27 109.68
99 43.27 109.68
100 43.27 109.68
101 65.13 107.39
102 56.29 110.38
103 56.29 110.38
104 35.8 107.73
105 35.8 107.73
106 35.8 107.73
107 35.64 108.55
108 76.79 109.66
109 43.28 109.59
110 43.28 109.59
111 43.27 109.68
112 43.27 109.68
113 43.27 109.68
114 65.13 107.39
115 56.29 110.38
116 56.29 110.38
117 35.8 107.73
118 35.8 107.73
119 35.8 107.73
120 35.64 108.55
121 76.79 109.66
122 43.28 109.59
123 43.28 109.59
124 43.27 109.68
125 43.27 109.68
126 43.27 109.68
127 65.13 107.39
128 56.29 110.38
129 56.29 110.38
130 35.8 107.73
131 35.8 107.73
132 35.8 107.73
133 35.64 108.55

Dihedral Coeffs # fourier

1 1 0.88 1 180
2 1 0.08 2 0
3 1 0.75 3 0
4 1 0.88 1 180
5 1 0.08 2 0
6 1 0.75 3 0
7 1 0.88 1 180
8 1 0.08 2 0
9 1 0.75 3 0
10 1 0.46 1 180
11 1 0.85 2 0
12 1 0.85 3 0
13 1 0.1556 3 0
14 1 0.1556 3 0
15 1 0.1556 3 0
16 1 0.52 3 0
17 1 0.52 3 0
18 1 0.1556 3 0
19 1 0.18 3 0
20 1 0.52 3 0
21 1 0.52 3 0
22 1 0.52 3 0
23 1 0.52 3 0
24 1 0.52 3 0
25 1 0.52 3 0
26 1 0.1556 3 0
27 1 0.18 3 0
28 1 0.25 1 0
29 1 0 3 0
30 1 0.25 1 0
31 1 0 3 0
32 1 0.25 1 0
33 1 0 3 0
34 1 0.25 1 0
35 1 0 3 0
36 1 0.25 1 0
37 1 0 3 0
38 1 0.25 1 0
39 1 0 3 0
40 1 0.25 1 0
41 1 0 3 0
42 1 0.13 3 0
43 1 0.13 3 0
44 1 0.13 3 0
45 1 0.13 3 0
46 1 0.13 3 0
47 1 0.13 3 0
48 1 0.13 3 0
49 1 0.13 3 0
50 1 0.06 3 0
51 1 0.13 3 0
52 1 0.1667 3 0
53 1 0.12 3 0
54 1 0.12 3 0
55 1 0.12 3 0
56 1 0.52 3 0
57 1 0.52 3 0
58 1 0.52 3 0
59 1 0.52 3 0
60 1 0.52 3 0
61 1 0.52 3 0
62 1 0.13 3 0
63 1 0.13 3 0
64 1 0.13 3 0
65 1 0.13 3 0
66 1 0.13 3 0
67 1 0.13 3 0
68 1 0.13 3 0
69 1 0.13 3 0
70 1 0.13 3 0
71 1 0.13 3 0
72 1 0.13 3 0
73 1 0.13 3 0
74 1 0.12 3 0
75 1 0.12 3 0
76 1 0.12 3 0
77 1 0.12 3 0
78 1 0.12 3 0
79 1 0.12 3 0
80 1 0.52 3 0
81 1 0.52 3 0
82 1 0.52 3 0
83 1 0.52 3 0
84 1 0.52 3 0
85 1 0.52 3 0
86 1 0.13 3 0
87 1 0.13 3 0
88 1 0.13 3 0
89 1 0.13 3 0
90 1 0.13 3 0
91 1 0.13 3 0
92 1 0.13 3 0
93 1 0.13 3 0
94 1 0.13 3 0
95 1 0.13 3 0
96 1 0.13 3 0
97 1 0.13 3 0
98 1 0.12 3 0
99 1 0.12 3 0
100 1 0.12 3 0
101 1 0.12 3 0
102 1 0.12 3 0
103 1 0.12 3 0
104 1 0.06 3 0
105 1 0.09 3 0
106 1 0.09 3 0
107 1 0.09 3 0
108 1 0.1556 3 0
109 1 0.1556 3 0
110 1 0.1556 3 0
111 1 0.1556 3 0
112 1 0.1556 3 0
113 1 0.1556 3 0
114 1 0.123 3 0
115 1 0.123 3 0
116 1 0.06 3 0
117 1 0.09 3 0
118 1 0.09 3 0
119 1 0.09 3 0
120 1 0.1556 3 0
121 1 0.1556 3 0
122 1 0.1556 3 0
123 1 0.1556 3 0
124 1 0.1556 3 0
125 1 0.1556 3 0
126 1 0.123 3 0
127 1 0.123 3 0
128 1 0.06 3 0
129 1 0.09 3 0
130 1 0.09 3 0
131 1 0.09 3 0
132 1 0.1556 3 0
133 1 0.1556 3 0
134 1 0.1556 3 0
135 1 0.1556 3 0
136 1 0.1556 3 0
137 1 0.1556 3 0
138 1 0.123 3 0
139 1 0.123 3 0
140 1 0.06 3 0
141 1 0.09 3 0
142 1 0.09 3 0
143 1 0.09 3 0
144 1 0.1556 3 0
145 1 0.1556 3 0
146 1 0.1556 3 0
147 1 0.1556 3 0
148 1 0.1556 3 0
149 1 0.1556 3 0
150 1 0.123 3 0
151 1 0.123 3 0
152 1 0.06 3 0
153 1 0.09 3 0
154 1 0.09 3 0
155 1 0.09 3 0
156 1 0.1556 3 0
157 1 0.1556 3 0
158 1 0.1556 3 0
159 1 0.1556 3 0
160 1 0.1556 3 0
161 1 0.1556 3 0
162 1 0.123 3 0
163 1 0.123 3 0

Atoms # full

1 1 1 -0.1010524286 5.26 4.964 4.465 0 0 0
2 1 1 0.5374475714 4.197 4.629 3.464 0 0 0
3 1 2 -0.4595524286 3.565 5.47 2.841 0 0 0
4 1 2 -0.4095524286 4.06 3.236 3.375 0 0 0
5 1 1 0.1688475714 3.102 2.676 2.496 0 0 0
6 1 1 -0.1066524286 1.848 3.278 2.332 0 0 0
7 1 1 -0.0456524286 0.923 2.743 1.435 0 0 0
8 1 1 -0.1086524286 1.23 1.588 0.724 0 0 0
9 1 1 -0.0206524286 2.46 0.956 0.92 0 0 0
10 1 1 -0.1609524286 3.402 1.483 1.818 0 0 0
11 1 1 0.5664475703 4.675 0.727 1.96 0 0 0
12 1 2 -0.4475524286 5.146 0.053 1.06 0 0 0
13 1 3 -0.5607524264 5.217 0.775 3.195 0 0 0
14 1 4 0.0844145712 5.321 6.053 4.567 0 0 0
15 1 4 0.0844145712 6.227 4.593 4.116 0 0 0
16 1 4 0.0844145712 5.007 4.542 5.44 0 0 0
17 1 4 0.1237475714 1.575 4.181 2.873 0 0 0
18 1 4 0.1047475714 -0.032 3.242 1.284 0 0 0
19 1 4 0.1057475714 0.513 1.179 0.017 0 0 0
20 1 4 0.1217475714 2.683 0.046 0.364 0 0 0
21 1 5 0.4390475714 4.707 1.301 3.838 0 0 0
22 2 1 -0.0907 1.282 7.312 6.496 0 0 0
23 2 1 -0.0907 0.812 8.162 7.498 0 0 0
24 2 1 -0.0907 1.39 8.13 8.767 0 0 0
25 2 1 -0.0907 2.436 7.248 9.035 0 0 0
26 2 1 -0.0907 2.905 6.398 8.034 0 0 0
27 2 1 -0.0907 2.329 6.431 6.764 0 0 0
28 2 4 0.0907 0.832 7.337 5.507 0 0 0
29 2 4 0.0907 -0.005 8.849 7.289 0 0 0
30 2 4 0.0907 1.025 8.794 9.547 0 0 0
31 2 4 0.0907 2.886 7.223 10.025 0 0 0
32 2 4 0.0907 3.72 5.709 8.243 0 0 0
33 2 4 0.0907 2.695 5.769 5.984 0 0 0
34 3 1 -0.0907 0.823 3.606 8.276 0 0 0
35 3 1 -0.0907 0.872 3.678 6.883 0 0 0
36 3 1 -0.0907 1.137 2.531 6.135 0 0 0
37 3 1 -0.0907 1.354 1.313 6.778 0 0 0
38 3 1 -0.0907 1.306 1.241 8.17 0 0 0
39 3 1 -0.0907 1.04 2.387 8.919 0 0 0
40 3 4 0.0907 0.617 4.5 8.859 0 0 0
41 3 4 0.0907 0.705 4.628 6.382 0 0 0
42 3 4 0.0907 1.172 2.587 5.05 0 0 0
43 3 4 0.0907 1.561 0.42 6.194 0 0 0
44 3 4 0.0907 1.476 0.292 8.671 0 0 0
45 3 4 0.0907 1.001 2.331 10.004 0 0 0
46 4 1 -0.1361001114 0.9 8.787 0.811 0 0 0
47 4 1 0.1263998886 0.887 8.512 2.301 0 0 0
48 4 3 -0.5998001092 0.848 7.112 2.537 0 0 0
49 4 4 0.0423668886 0.941 9.862 0.616 0 0 0
50 4 4 0.0423668886 0.005 8.375 0.334 0 0 0
51 4 4 0.0423668886 1.763 8.308 0.338 0 0 0
52 4 6 0.0431998886 0.017 8.974 2.777 0 0 0
53 4 6 0.0431998886 1.791 8.911 2.772 0 0 0
54 4 5 0.3959998886 0.037 6.768 2.126 0 0 0
55 5 1 -0.1361001114 7.334 5.162 1.244 0 0 0
56 5 1 0.1263998886 8.764 5.279 1.732 0 0 0
57 5 3 -0.5998001092 8.943 4.497 2.903 0 0 0
58 5 4 0.0423668886 7.185 5.751 0.335 0 0 0
59 5 4 0.0423668886 6.634 5.51 2.01 0 0 0
60 5 4 0.0423668886 7.083 4.117 1.034 0 0 0
61 5 6 0.0431998886 9.016 6.318 1.96 0 0 0
62 5 6 0.0431998886 9.459 4.914 0.969 0 0 0
63 5 5 0.3959998886 8.33 4.835 3.579 0 0 0
64 6 1 -0.1361001114 5.239 8.747 8.821 0 0 0
65 6 1 0.1263998886 6.238 8.46 7.718 0 0 0
66 6 3 -0.5998001092 5.62 7.704 6.687 0 0 0
67 6 4 0.0423668886 5.7 9.339 9.617 0 0 0
68 6 4 0.0423668886 4.857 7.815 9.249 0 0 0
69 6 4 0.0423668886 4.377 9.295 8.427 0 0 0
70 6 6 0.0431998886 7.094 7.898 8.102 0 0 0
71 6 6 0.0431998886 6.606 9.394 7.282 0 0 0
72 6 5 0.3959998886 5.307 6.872 7.081 0 0 0
73 7 1 -0.1361001114 4.779 3.015 9.312 0 0 0
74 7 1 0.1263998886 4.699 3.413 7.853 0 0 0
75 7 3 -0.5998001092 5.169 2.352 7.034 0 0 0
76 7 4 0.0423668886 4.41 3.82 9.954 0 0 0
77 7 4 0.0423668886 5.811 2.784 9.595 0 0 0
78 7 4 0.0423668886 4.187 2.113 9.5 0 0 0
79 7 6 0.0431998886 5.302 4.303 7.656 0 0 0
80 7 6 0.0431998886 3.664 3.627 7.571 0 0 0
81 7 5 0.3959998886 6.092 2.176 7.283 0 0 0
82 8 1 -0.1361001114 5.521 9.527 2.165 0 0 0
83 8 1 0.1263998886 5.735 8.032 2.288 0 0 0
84 8 3 -0.5998001092 6.871 7.64 1.532 0 0 0
85 8 4 0.0423668886 4.654 9.844 2.752 0 0 0
86 8 4 0.0423668886 5.363 9.811 1.12 0 0 0
87 8 4 0.0423668886 6.403 10.073 2.514 0 0 0
88 8 6 0.0431998886 4.864 7.48 1.925 0 0 0
89 8 6 0.0431998886 5.909 7.755 3.332 0 0 0
90 8 5 0.3959998886 6.704 7.879 0.604 0 0 0

Velocities

8 0 0 0
19 0 0 0
9 0 0 0
10 0 0 0
11 0 0 0
12 0 0 0
20 0 0 0
7 0 0 0
18 0 0 0
55 0 0 0
58 0 0 0
59 0 0 0
60 0 0 0
84 0 0 0
88 0 0 0
90 0 0 0
56 0 0 0
61 0 0 0
62 0 0 0
46 0 0 0
49 0 0 0
50 0 0 0
51 0 0 0
86 0 0 0
37 0 0 0
43 0 0 0
13 0 0 0
21 0 0 0
6 0 0 0
17 0 0 0
22 0 0 0
28 0 0 0
35 0 0 0
36 0 0 0
41 0 0 0
42 0 0 0
48 0 0 0
54 0 0 0
1 0 0 0
2 0 0 0
3 0 0 0
4 0 0 0
5 0 0 0
14 0 0 0
15 0 0 0
16 0 0 0
27 0 0 0
33 0 0 0
66 0 0 0
72 0 0 0
74 0 0 0
75 0 0 0
79 0 0 0
80 0 0 0
81 0 0 0
89 0 0 0
57 0 0 0
63 0 0 0
23 0 0 0
29 0 0 0
47 0 0 0
52 0 0 0
53 0 0 0
65 0 0 0
71 0 0 0
82 0 0 0
83 0 0 0
85 0 0 0
87 0 0 0
38 0 0 0
44 0 0 0
78 0 0 0
34 0 0 0
39 0 0 0
40 0 0 0
45 0 0 0
25 0 0 0
26 0 0 0
31 0 0 0
32 0 0 0
68 0 0 0
70 0 0 0
73 0 0 0
76 0 0 0
77 0 0 0
24 0 0 0
30 0 0 0
64 0 0 0
67 0 0 0
69 0 0 0

Bonds

1 9 8 9
2 19 8 19
3 10 9 10
4 20 9 20
5 11 10 11
6 12 11 12
7 13 11 13
8 8 7 8
9 18 7 18
10 54 55 56
11 56 55 58
12 57 55 59
13 58 55 60
14 85 84 90
15 55 56 57
16 59 56 61
17 60 56 62
18 46 46 47
19 48 46 49
20 49 46 50
21 50 46 51
22 38 37 38
23 43 37 43
24 21 13 21
25 7 6 7
26 17 6 17
27 22 22 23
28 23 22 27
29 28 22 28
30 36 35 36
31 41 35 41
32 37 36 37
33 42 36 42
34 53 48 54
35 1 1 2
36 14 1 14
37 15 1 15
38 16 1 16
39 2 2 3
40 3 2 4
41 4 4 5
42 5 5 6
43 6 5 10
44 33 27 33
45 69 66 72
46 71 74 75
47 75 74 79
48 76 74 80
49 77 75 81
50 61 57 63
51 24 23 24
52 29 23 29
53 47 47 48
54 51 47 52
55 52 47 53
56 63 65 66
57 67 65 70
58 68 65 71
59 78 82 83
60 80 82 85
61 81 82 86
62 82 82 87
63 79 83 84
64 83 83 88
65 84 83 89
66 39 38 39
67 44 38 44
68 34 34 35
69 35 34 39
70 40 34 40
71 45 39 45
72 26 25 26
73 31 25 31
74 27 26 27
75 32 26 32
76 70 73 74
77 72 73 76
78 73 73 77
79 74 73 78
80 25 24 25
81 30 24 30
82 62 64 65
83 64 64 67
84 65 64 68
85 66 64 69

Angles

1 12 7 8 9
2 24 7 8 19
3 27 9 8 19
4 13 8 9 10
5 26 8 9 20
6 28 10 9 20
7 8 5 10 9
8 9 5 10 11
9 14 9 10 11
10 15 10 11 12
11 16 10 11 13
12 17 12 11 13
13 11 6 7 8
14 22 6 7 18
15 25 8 7 18
16 85 56 55 58
17 86 56 55 59
18 87 56 55 60
19 91 58 55 59
20 92 58 55 60
21 93 59 55 60
22 127 83 84 90
23 82 55 56 57
24 83 55 56 61
25 84 55 56 62
26 89 57 56 61
27 90 57 56 62
28 94 61 56 62
29 72 47 46 49
30 73 47 46 50
31 74 47 46 51
32 78 49 46 50
33 79 49 46 51
34 80 50 46 51
35 55 36 37 38
36 62 36 37 43
37 65 38 37 43
38 29 11 13 21
39 7 5 6 7
40 21 5 6 17
41 23 7 6 17
42 35 23 22 27
43 41 23 22 28
44 49 27 22 28
45 51 34 35 36
46 57 34 35 41
47 61 36 35 41
48 54 35 36 37
49 60 35 36 42
50 63 37 36 42
51 75 47 48 54
52 18 2 1 14
53 19 2 1 15
54 20 2 1 16
55 30 14 1 15
56 31 14 1 16
57 32 15 1 16
58 1 1 2 3
59 2 1 2 4
60 4 3 2 4
61 3 2 4 5
62 5 4 5 6
63 6 4 5 10
64 10 6 5 10
65 34 22 27 26
66 40 22 27 33
67 48 26 27 33
68 101 65 66 72
69 108 73 74 75
70 109 73 74 79
71 110 73 74 80
72 115 75 74 79
73 116 75 74 80
74 120 79 74 80
75 114 74 75 81
76 88 56 57 63
77 33 22 23 24
78 39 22 23 29
79 43 24 23 29
80 69 46 47 48
81 70 46 47 52
82 71 46 47 53
83 76 48 47 52
84 77 48 47 53
85 81 52 47 53
86 95 64 65 66
87 96 64 65 70
88 97 64 65 71
89 102 66 65 70
90 103 66 65 71
91 107 70 65 71
92 124 83 82 85
93 125 83 82 86
94 126 83 82 87
95 130 85 82 86
96 131 85 82 87
97 132 86 82 87
98 121 82 83 84
99 122 82 83 88
100 123 82 83 89
101 128 84 83 88
102 129 84 83 89
103 133 88 83 89
104 56 37 38 39
105 64 37 38 44
106 68 39 38 44
107 53 35 34 39
108 59 35 34 40
109 67 39 34 40
110 52 34 39 38
111 58 34 39 45
112 66 38 39 45
113 37 24 25 26
114 44 24 25 31
115 47 26 25 31
116 38 25 26 27
117 46 25 26 32
118 50 27 26 32
119 111 74 73 76
120 112 74 73 77
121 113 74 73 78
122 117 76 73 77
123 118 76 73 78
124 119 77 73 78
125 36 23 24 25
126 42 23 24 30
127 45 25 24 30
128 98 65 64 67
129 99 65 64 68
130 100 65 64 69
131 104 67 64 68
132 105 67 64 69
133 106 68 64 69

Dihedrals

1 24 7 8 9 10
2 45 7 8 9 20
3 47 9 8 7 18
4 55 19 8 9 20
5 25 8 9 10 11
6 49 10 9 8 19
7 17 5 10 9 8
8 18 5 10 11 12
9 19 5 10 11 13
10 26 9 10 11 12
11 27 9 10 11 13
12 43 5 10 9 20
13 51 11 10 9 20
14 50 10 11 13 21
15 52 12 11 13 21
16 22 6 7 8 9
17 44 6 7 8 19
18 46 8 7 6 17
19 54 18 7 8 19
20 117 58 55 56 57
21 118 59 55 56 57
22 119 60 55 56 57
23 120 58 55 56 61
24 121 58 55 56 62
25 122 59 55 56 61
26 123 59 55 56 62
27 124 60 55 56 61
28 125 60 55 56 62
29 116 55 56 57 63
30 126 61 56 57 63
31 127 62 56 57 63
32 105 49 46 47 48
33 106 50 46 47 48
34 107 51 46 47 48
35 108 49 46 47 52
36 109 49 46 47 53
37 110 50 46 47 52
38 111 50 46 47 53
39 112 51 46 47 52
40 113 51 46 47 53
41 85 36 37 38 39
42 91 36 37 38 44
43 94 38 37 36 42
44 102 43 37 38 44
45 16 5 6 7 8
46 23 7 6 5 10
47 42 5 6 7 18
48 53 17 6 7 18
49 58 23 22 27 26
50 60 27 22 23 24
51 64 23 22 27 33
52 66 28 22 23 24
53 71 28 22 27 26
54 72 27 22 23 29
55 74 28 22 23 29
56 75 28 22 27 33
57 80 34 35 36 37
58 86 34 35 36 42
59 100 41 35 36 42
60 83 35 36 37 38
61 89 35 36 37 43
62 92 37 36 35 41
63 101 42 36 37 43
64 28 14 1 2 3
65 29 14 1 2 3
66 30 15 1 2 3
67 31 15 1 2 3
68 32 16 1 2 3
69 33 16 1 2 3
70 34 14 1 2 4
71 35 14 1 2 4
72 36 15 1 2 4
73 37 15 1 2 4
74 38 16 1 2 4
75 39 16 1 2 4
76 1 1 2 4 5
77 2 1 2 4 5
78 3 1 2 4 5
79 10 3 2 4 5
80 11 3 2 4 5
81 12 3 2 4 5
82 4 2 4 5 6
83 5 2 4 5 6
84 6 2 4 5 6
85 7 2 4 5 10
86 8 2 4 5 10
87 9 2 4 5 10
88 13 4 5 6 7
89 14 4 5 10 9
90 15 4 5 10 11
91 20 6 5 10 9
92 21 6 5 10 11
93 40 4 5 6 17
94 41 4 5 6 17
95 48 10 5 6 17
96 57 22 27 26 25
97 63 22 27 26 32
98 140 73 74 75 81
99 150 79 74 75 81
100 151 80 74 75 81
101 56 22 23 24 25
102 62 22 23 24 30
103 76 29 23 24 30
104 104 46 47 48 54
105 114 52 47 48 54
106 115 53 47 48 54
107 128 64 65 66 72
108 138 70 65 66 72
109 139 71 65 66 72
110 153 85 82 83 84
111 154 86 82 83 84
112 155 87 82 83 84
113 156 85 82 83 88
114 157 85 82 83 89
115 158 86 82 83 88
116 159 86 82 83 89
117 160 87 82 83 88
118 161 87 82 83 89
119 152 82 83 84 90
120 162 88 83 84 90
121 163 89 83 84 90
122 93 37 38 39 45
123 97 39 38 37 43
124 103 44 38 39 45
125 82 35 34 39 38
126 84 39 34 35 36
127 88 35 34 39 45
128 90 40 34 35 36
129 95 40 34 39 38
130 96 39 34 35 41
131 98 40 34 35 41
132 99 40 34 39 45
133 81 34 39 38 37
134 87 34 39 38 44
135 61 24 25 26 27
136 67 24 25 26 32
137 70 26 25 24 30
138 78 31 25 26 32
139 69 25 26 27 33
140 73 27 26 25 31
141 79 32 26 27 33
142 141 76 73 74 75
143 142 77 73 74 75
144 143 78 73 74 75
145 144 76 73 74 79
146 145 76 73 74 80
147 146 77 73 74 79
148 147 77 73 74 80
149 148 78 73 74 79
150 149 78 73 74 80
151 59 23 24 25 26
152 65 23 24 25 31
153 68 25 24 23 29
154 77 30 24 25 31
155 129 67 64 65 66
156 130 68 64 65 66
157 131 69 64 65 66
158 132 67 64 65 70
159 133 67 64 65 71
160 134 68 64 65 70
161 135 68 64 65 71
162 136 69 64 65 70
163 137 69 64 65 71
